LAMMPS (7 Aug 2019)
  using 20 OpenMP thread(s) per MPI task

### Variable Definitions #####################

variable snapshot_folder index snapshots

# define the simulation name
variable sim_name index crystal
variable sim_name_melt index ${sim_name}_melting
variable sim_name_melt index crystal_melting
variable sim_name_quench index ${sim_name}_quenching
variable sim_name_quench index crystal_quenching

# define the simulation number
variable run_n index 0
variable run_n_melt equal 1
variable run_n_quench equal 1

# define the seed for the random number generator
variable seed equal 3358

# parameters for static minimization
variable E_tol equal 1.0e-6
variable F_tol equal 1.0e-5
variable N_iter equal 50000
variable N_eval equal 100000

# parameters for MD simulation
# number of steps: NPT
variable N_melting equal 1000000  # 1ns
variable N_quenching equal 1000000  # 1ns
# time step
variable dt equal 1.0

# thermostat parameters
variable Thigh equal 800.0
variable Tlow equal 300.0
variable Tinit equal ${Tlow}
variable Tinit equal 300
variable meltingTime equal 100000.0  # 100 ps
variable quenchingTime equal 100000.0  # 100 ps

# barostat parameters
variable Pinit equal 1.0
variable Phigh equal 100.0
variable Plow equal 1.0
variable squashingTime equal ${N_quenching}
variable squashingTime equal 1000000
variable tauP equal 2000.0



# data export parameters
# write snapshot
variable xyz_step equal 5000
# write MD thermodynamic data on console
variable console_step equal 100
# write minimization data on console
variable console_step_min equal 1
# write simulation backup file
variable crash_N equal 50000

#############################################





### Init Simulation ##########################

units real
atom_style molecular
boundary p p p
read_data crystal.lammps
  orthogonal box = (0 0 0) to (80 80 40)
  1 by 1 by 1 MPI processor grid
  reading atoms ...
  9216 atoms
  scanning bonds ...
  3 = max bonds/atom
  scanning angles ...
  3 = max angles/atom
  scanning dihedrals ...
  10 = max dihedrals/atom
  reading bonds ...
  10240 bonds
  reading angles ...
  16896 angles
  reading dihedrals ...
  26624 dihedrals
  3 = max # of 1-2 neighbors
  6 = max # of 1-3 neighbors
  14 = max # of 1-4 neighbors
  15 = max # of special neighbors
  special bonds CPU = 0.00568581 secs
  read_data CPU = 0.0902791 secs

timestep ${dt}
timestep 1
shell mkdir ${snapshot_folder}
shell mkdir snapshots
WARNING: Shell command 'mkdir' failed with error 'File exists' (src/input.cpp:1292)
#############################################





### Topology ################################
# atom types
# 1 --> CA
# 2 --> HA

# bonds
bond_style	harmonic
# CA-CA
bond_coeff	1	461.100000	1.398000
# CA-HA
bond_coeff	2	345.800000	1.086000

# angles
angle_style	harmonic
# CA-CA-CA
angle_coeff	1	66.600000	120.020000
# CA-CA-HA
angle_coeff	2	48.200000	119.880000

# dihedrals
dihedral_style	fourier
# CA-CA-CA-CA
dihedral_coeff	1	1	3.625000	2	180.000000

# pair
pair_style	lj/cut	12.0
pair_coeff 1 1 0.086000 3.399670 # CA-CA
pair_coeff 1 2 0.035917 2.999656 # CA-HA
pair_coeff 2 2 0.015000 2.599642 # HA-HA

special_bonds	lj	0.0	0.0	0.5
  3 = max # of 1-2 neighbors
  6 = max # of 1-3 neighbors
  14 = max # of 1-4 neighbors
  15 = max # of special neighbors
  special bonds CPU = 0.00513196 secs

#############################################



### Geometry Optimisation ###################
thermo ${console_step_min}
thermo 1
thermo_style custom step pe emol evdwl
min_style cg
minimize ${E_tol} ${F_tol} ${N_iter} ${N_eval}
minimize 1e-06 ${F_tol} ${N_iter} ${N_eval}
minimize 1e-06 1e-05 ${N_iter} ${N_eval}
minimize 1e-06 1e-05 50000 ${N_eval}
minimize 1e-06 1e-05 50000 100000
WARNING: Using 'neigh_modify every 1 delay 0 check yes' setting during minimization (src/min.cpp:168)
Neighbor list info ...
  update every 1 steps, delay 0 steps, check yes
  max neighbors/atom: 2000, page size: 100000
  master list distance cutoff = 14
  ghost atom cutoff = 14
  binsize = 7, bins = 12 12 6
  1 neighbor lists, perpetual/occasional/extra = 1 0 0
  (1) pair lj/cut, perpetual
      attributes: half, newton on
      pair build: half/bin/newton
      stencil: half/bin/3d/newton
      bin: standard
Per MPI rank memory allocation (min/avg/max) = 59.05 | 59.05 | 59.05 Mbytes
Step PotEng E_mol E_vdwl 
       0    661834.91    34831.732    627003.18 
       1    307016.02    36198.686    270817.34 
       2     139087.8    35526.271    103561.53 
       3    67381.322    23692.166    43689.156 
       4    38650.462    13551.278    25099.184 
       5    28520.288    12862.314    15657.974 
       6    14446.059    5906.6535    8539.4053 
       7    12772.752    4665.4312    8107.3205 
       8    10639.524    3751.3573    6888.1665 
       9    8812.1102    3077.8899    5734.2204 
      10    7486.8854     2705.153    4781.7323 
      11    6772.0419    2478.4739     4293.568 
      12    5927.8807    2277.4969    3650.3838 
      13     5083.781    1972.5457    3111.2353 
      14    4444.1928    1531.3895    2912.8033 
      15    4133.6592    1292.9635    2840.6956 
      16    3870.5606       1115.7    2754.8606 
      17    3766.9804    1055.7468    2711.2336 
      18    3657.1296    1033.7469    2623.3827 
      19    3537.6599    1029.7554    2507.9045 
      20    3456.2565    1031.9349    2424.3216 
      21     3384.493    1000.5687    2383.9243 
      22    3289.5588    923.87364    2365.6852 
      23    3201.8435    846.49349      2355.35 
      24    3059.6319    652.13797    2407.4939 
      25    2967.4644    515.44051    2452.0238 
      26    2935.3993    477.06452    2458.3347 
      27    2878.3629     450.0542    2428.3086 
      28    2848.2465    439.34957    2408.8969 
      29    2818.9063     417.9775    2400.9288 
      30    2787.2153    434.06588    2353.1494 
      31    2748.6455    429.44695    2319.1985 
      32    2719.3025    405.01413    2314.2884 
      33    2688.8895     381.6985     2307.191 
      34    2663.5039    351.60176    2311.9022 
      35    2626.3999    309.05511    2317.3448 
      36     2616.914     302.6128    2314.3012 
      37    2605.7377    289.78714    2315.9505 
      38     2599.084    292.16089    2306.9232 
      39    2591.7543    295.69308    2296.0613 
      40    2587.5744    302.34831    2285.2261 
      41    2582.7463    307.63465    2275.1117 
      42    2578.4867    308.48301    2270.0036 
      43    2574.5891    309.96389    2264.6252 
      44    2567.9942    303.78322     2264.211 
      45     2562.507    291.08461    2271.4224 
      46    2557.6583    281.37974    2276.2785 
      47    2553.4979    274.01208    2279.4858 
      48    2548.4888    267.96872    2280.5201 
      49    2542.8101    255.07785    2287.7322 
      50    2539.1939    253.70004    2285.4938 
      51    2536.0632    255.23023     2280.833 
      52    2533.8327    259.16806    2274.6646 
      53    2531.1024    260.47044    2270.6319 
      54    2528.3282    259.22372    2269.1044 
      55     2527.524     257.7596    2269.7644 
      56    2525.4794    249.41269    2276.0667 
      57    2523.7942    245.20044    2278.5938 
      58    2522.8935    242.23173    2280.6618 
      59     2521.816    240.28079    2281.5352 
      60    2521.2332    242.09132    2279.1419 
      61    2520.7137    244.28472    2276.4289 
      62    2520.1348    246.41547    2273.7193 
      63    2519.4249    248.45726    2270.9677 
      64    2519.0489    248.57889      2270.47 
      65    2518.6401    248.78426    2269.8558 
      66    2518.2692    246.01358    2272.2557 
      67    2517.7656    244.43271    2273.3329 
      68    2517.3268    243.56271     2273.764 
      69    2517.0316    242.66575    2274.3658 
      70    2516.7194    243.74758    2272.9719 
      71     2516.078    245.49262    2270.5854 
      72    2515.4495    249.20776    2266.2417 
      73    2514.5878    253.26866    2261.3191 
      74    2513.4011    257.69984    2255.7012 
      75    2512.0126    261.93957     2250.073 
      76    2510.3584    260.38568    2249.9728 
      77     2508.953     258.5391    2250.4139 
      78    2506.7198    258.40732    2248.3125 
      79    2505.3735    252.88197    2252.4916 
      80    2504.4476    248.83536    2255.6123 
      81    2503.8619    247.97059    2255.8913 
      82    2503.4895    250.11749     2253.372 
      83    2502.9556    251.95132    2251.0043 
      84    2502.5657    251.78745    2250.7783 
      85    2502.2513     252.5825    2249.6688 
      86    2501.6947    251.94348    2249.7512 
      87    2500.6723    250.76029     2249.912 
      88    2499.8654    248.80941     2251.056 
      89     2499.227    245.92227    2253.3047 
      90    2498.5453    243.06006    2255.4853 
      91    2497.9161    240.53969    2257.3765 
      92    2496.9917    241.96524    2255.0265 
      93    2495.6061    238.75454    2256.8515 
      94    2494.2076     233.6456     2260.562 
      95    2493.0325    236.20487    2256.8277 
      96    2491.1213    244.10513    2247.0161 
      97    2488.0473    246.55214    2241.4951 
      98    2485.4282    249.47521     2235.953 
      99    2483.0105    250.24092    2232.7696 
     100    2478.9894    251.90386    2227.0856 
     101    2474.6205    250.26327    2224.3573 
     102    2467.0393    260.72227     2206.317 
     103    2463.0104    265.49059    2197.5198 
     104    2457.5439    262.29084     2195.253 
     105    2453.2466    270.56434    2182.6823 
     106     2447.758     293.5413    2154.2167 
     107    2441.3263    301.76435    2139.5619 
     108    2433.7183    306.11132     2127.607 
     109    2421.1373    329.20978    2091.9276 
     110    2411.9509    354.45425    2057.4967 
     111    2398.8866    382.09475    2016.7918 
     112    2380.2949    407.33086     1972.964 
     113    2362.8118    419.74154    1943.0702 
     114    2340.5954    448.79768    1891.7977 
     115     2315.764    490.38907    1825.3749 
     116    2279.8685    514.44106    1765.4274 
     117    2250.7734    537.50601    1713.2674 
     118    2215.1154    550.50683    1664.6085 
     119    2168.5416    587.52085    1581.0208 
     120    2136.9019    582.93978    1553.9621 
     121    2096.0462    558.25603    1537.7902 
     122     2064.581    530.24336    1534.3376 
     123    2032.0398    497.56189    1534.4779 
     124    2019.8336    478.18244    1541.6512 
     125    2010.4267    449.25047    1561.1762 
     126    1998.4632    404.77326      1593.69 
     127    1989.8422    378.31668    1611.5255 
     128    1982.2627    357.73703    1624.5257 
     129    1976.0175    341.34371    1634.6738 
     130    1969.3661    327.31586    1642.0503 
     131    1963.9324    319.22949    1644.7029 
     132    1958.6823    311.07694    1647.6053 
     133    1956.1432    302.86858    1653.2746 
     134    1951.4809    280.35604    1671.1248 
     135    1949.3279    272.51679    1676.8111 
     136    1946.3359     258.2543    1688.0816 
     137    1944.0826    243.87293    1700.2097 
     138    1941.0578    227.81336    1713.2444 
     139    1938.5194    223.65815    1714.8612 
     140    1933.5734    230.62051    1702.9529 
     141    1929.5421    229.70878    1699.8333 
     142     1926.658    223.22659    1703.4314 
     143     1923.074    226.32674    1696.7472 
     144    1919.4296    239.29621    1680.1334 
     145    1917.3844    241.82525    1675.5591 
     146    1914.4886    239.09197    1675.3966 
     147     1913.225    238.10192     1675.123 
     148    1911.3828    240.52642    1670.8564 
     149    1910.4435    244.19562    1666.2478 
     150    1908.8764    251.24838     1657.628 
     151    1907.5993    258.30577    1649.2935 
     152    1906.5822    264.32625     1642.256 
     153    1905.8249    270.70314    1635.1218 
     154    1905.0001    277.08074    1627.9194 
     155    1904.1644    280.45214    1623.7123 
     156    1903.6743     282.4508    1621.2235 
     157    1902.7052    282.87924    1619.8259 
     158    1902.0417    283.33518    1618.7065 
     159    1901.1223    282.73178    1618.3906 
     160    1899.4402    281.71394    1617.7263 
     161    1898.3054    281.99367    1616.3117 
     162    1896.3573    282.75142    1613.6059 
     163     1895.169    284.56284    1610.6061 
     164    1892.7867    285.90234    1606.8844 
     165    1891.4076    286.05015    1605.3575 
     166    1889.7168    283.63053    1606.0862 
     167    1888.7665     277.7135     1611.053 
     168    1887.3043    265.02379    1622.2805 
     169     1885.913    257.62364    1628.2893 
     170    1884.8152       252.23    1632.5851 
     171    1884.2045    248.20375    1636.0008 
     172     1883.604    245.65297     1637.951 
     173    1883.1348    246.01432    1637.1205 
     174    1882.5744    248.96955    1633.6049 
     175    1882.3958    248.74681     1633.649 
     176    1882.2699    248.14039    1634.1296 
     177     1882.078    248.14191     1633.936 
     178    1881.9733    248.22257    1633.7507 
     179    1881.8969     248.1679     1633.729 
     180    1881.8278    247.36962    1634.4581 
     181    1881.7682     247.2583    1634.5099 
     182    1881.7317     247.5935    1634.1382 
     183    1881.6807    248.53154    1633.1491 
     184    1881.6323    249.10081    1632.5315 
     185    1881.5958    248.98501    1632.6107 
     186    1881.5557    249.91615    1631.6396 
     187    1881.5232    250.83482    1630.6884 
     188    1881.4792    251.89552    1629.5837 
     189    1881.4036    252.70857     1628.695 
     190    1881.3583    252.49029     1628.868 
     191    1881.2765    252.73794    1628.5385 
     192    1881.2204    253.54317    1627.6772 
     193    1881.1605    254.80767    1626.3529 
     194    1881.0804     254.6665    1626.4139 
     195    1880.9914      254.599    1626.3924 
     196    1880.9288    255.25392    1625.6748 
     197    1880.8558    256.07576      1624.78 
     198    1880.7902    255.17261    1625.6176 
     199    1880.7367    253.94778    1626.7889 
     200    1880.6912     253.9391    1626.7521 
     201    1880.6548     253.7802    1626.8746 
     202    1880.6208    252.63911    1627.9817 
     203     1880.588     251.6797    1628.9083 
     204    1880.5626    251.51303    1629.0495 
     205     1880.541    251.56934    1628.9717 
     206    1880.5187    250.84917    1629.6696 
     207    1880.4991    250.42706     1630.072 
     208    1880.4784    250.35594    1630.1224 
     209    1880.4571    250.38088    1630.0762 
     210    1880.4179    249.73114    1630.6868 
     211    1880.3767    249.08427    1631.2924 
     212    1880.3477    249.13723    1631.2105 
     213    1880.3109    248.92342    1631.3874 
     214    1880.2602    247.92155    1632.3387 
     215    1880.2382     247.4977    1632.7405 
     216     1880.217    247.84919    1632.3678 
     217    1880.2004    248.33252    1631.8679 
     218    1880.1766    248.63614    1631.5405 
     219    1880.1648    248.87839    1631.2864 
     220    1880.1554    249.07577    1631.0796 
     221    1880.1452    249.45353    1630.6917 
     222    1880.1361    249.80418     1630.332 
     223    1880.1275    250.05705    1630.0704 
     224    1880.1191    250.39421    1629.7249 
     225    1880.1138    250.64111    1629.4727 
     226    1880.1102     251.0184    1629.0918 
     227    1880.1078    251.20591    1628.9019 
     228    1880.1041    251.59573    1628.5084 
     229    1880.0985    252.18674    1627.9118 
     230      1880.09    252.92732    1627.1627 
     231    1880.0843    253.24909    1626.8352 
     232    1880.0749    253.53196    1626.5429 
     233    1880.0641    253.82573    1626.2384 
     234    1880.0535    254.04516    1626.0083 
     235    1880.0389    254.26873    1625.7702 
     236     1880.013    254.52038    1625.4926 
     237     1879.979    255.06774    1624.9112 
     238    1879.9375    255.97854    1623.9589 
     239    1879.8707    257.23028    1622.6405 
     240    1879.8265    257.78468    1622.0418 
     241    1879.7655    258.14735    1621.6181 
     242    1879.7067    258.31838    1621.3883 
     243    1879.6059    257.99883     1621.607 
     244     1879.512    257.28619    1622.2259 
     245    1879.4346    255.61563    1623.8189 
     246    1879.3657     253.9674    1625.3983 
     247    1879.2956    253.21691    1626.0787 
     248    1879.2196    252.35927    1626.8603 
     249    1879.1359    250.95219    1628.1837 
     250    1879.0913    250.32053    1628.7708 
     251    1879.0368    250.08131    1628.9555 
     252    1878.9992    249.89835    1629.1009 
     253    1878.9676    249.59154     1629.376 
     254    1878.8945    249.03872    1629.8558 
     255    1878.7502    247.86395    1630.8863 
     256    1878.5211    247.02295    1631.4982 
     257    1878.3829    246.63496     1631.748 
     258    1878.1664    245.49678    1632.6697 
     259    1878.0369     244.3156    1633.7213 
     260    1877.8466    244.53359     1633.313 
     261    1877.7282    244.77147    1632.9567 
     262    1877.5857    245.43196    1632.1538 
     263    1877.4333    246.15472    1631.2786 
     264    1877.2815    247.11154      1630.17 
     265    1877.1751    247.87712     1629.298 
     266    1877.0749    249.25009    1627.8248 
     267    1877.0126     249.8166     1627.196 
     268    1876.9474    249.71655    1627.2308 
     269    1876.8993    250.13897    1626.7604 
     270    1876.8529    250.73621    1626.1167 
     271    1876.8529    250.73621    1626.1167 
Loop time of 25.9596 on 20 procs for 271 steps with 9216 atoms

100.0% CPU use with 1 MPI tasks x 20 OpenMP threads

Minimization stats:
  Stopping criterion = linesearch alpha is zero
  Energy initial, next-to-last, final = 
         661834.909826      1876.85294053      1876.85294053
  Force two-norm initial, final = 184905 8.74492
  Force max component initial, final = 5536.06 0.260615
  Final line search alpha, max atom move = 1.46887e-10 3.82808e-11
  Iterations, force evaluations = 271 593

MPI task timing breakdown:
Section |  min time  |  avg time  |  max time  |%varavg| %total
---------------------------------------------------------------
Pair    | 23.865     | 23.865     | 23.865     |   0.0 | 91.93
Bond    | 1.7446     | 1.7446     | 1.7446     |   0.0 |  6.72
Neigh   | 0.1735     | 0.1735     | 0.1735     |   0.0 |  0.67
Comm    | 0.061823   | 0.061823   | 0.061823   |   0.0 |  0.24
Output  | 0.0034599  | 0.0034599  | 0.0034599  |   0.0 |  0.01
Modify  | 0          | 0          | 0          |   0.0 |  0.00
Other   |            | 0.1113     |            |       |  0.43

Nlocal:    9216 ave 9216 max 9216 min
Histogram: 1 0 0 0 0 0 0 0 0 0
Nghost:    19824 ave 19824 max 19824 min
Histogram: 1 0 0 0 0 0 0 0 0 0
Neighs:    1.97325e+06 ave 1.97325e+06 max 1.97325e+06 min
Histogram: 1 0 0 0 0 0 0 0 0 0

Total # of neighbors = 1973248
Ave neighs/atom = 214.111
Ave special neighs/atom = 10.8333
Neighbor list builds = 3
Dangerous builds = 0
reset_timestep 0
#############################################



### IO Control ##############################
# -- temperature / pressure control ------------------------------------
# initial velocities
velocity all create ${Tinit} ${seed} mom yes rot yes dist gaussian
velocity all create 300 ${seed} mom yes rot yes dist gaussian
velocity all create 300 3358 mom yes rot yes dist gaussian

# write xyz file
dump xyz_coords all xyz ${xyz_step} preview.xyz
dump xyz_coords all xyz 5000 preview.xyz
dump_modify xyz_coords element C H
dump_modify xyz_coords sort id

# write thermodynamic data
thermo ${console_step}
thermo 100
thermo_style custom step ke pe temp emol evdwl pxx pyy pzz pxy pxz pyz lx ly lz vol ebond eangle edihed

# write restart
restart ${crash_N} resume_crash_0_${sim_name}_md_run${run_n} resume_crash_1_${sim_name}_md_run${run_n}
restart 50000 resume_crash_0_${sim_name}_md_run${run_n} resume_crash_1_${sim_name}_md_run${run_n}
restart 50000 resume_crash_0_crystal_md_run${run_n} resume_crash_1_${sim_name}_md_run${run_n}
restart 50000 resume_crash_0_crystal_md_run0 resume_crash_1_${sim_name}_md_run${run_n}
restart 50000 resume_crash_0_crystal_md_run0 resume_crash_1_crystal_md_run${run_n}
restart 50000 resume_crash_0_crystal_md_run0 resume_crash_1_crystal_md_run0

#############################################





### Simulation 1 -Melting ###################

# write snapshot
dump coords all custom ${xyz_step} ${snapshot_folder}/snapshotMelt*.dat id mol type x y z ix iy iz
dump coords all custom 5000 ${snapshot_folder}/snapshotMelt*.dat id mol type x y z ix iy iz
dump coords all custom 5000 snapshots/snapshotMelt*.dat id mol type x y z ix iy iz
dump_modify coords sort id

#fix mypt all npt temp ${Tinit} ${Tinit} ${tau} aniso ${Pinit} ${Pinit} ${tauP}
fix mypt all npt temp ${Tlow} ${Thigh} ${meltingTime} iso ${Plow} ${Plow} ${tauP}
fix mypt all npt temp 300 ${Thigh} ${meltingTime} iso ${Plow} ${Plow} ${tauP}
fix mypt all npt temp 300 800 ${meltingTime} iso ${Plow} ${Plow} ${tauP}
fix mypt all npt temp 300 800 100000 iso ${Plow} ${Plow} ${tauP}
fix mypt all npt temp 300 800 100000 iso 1 ${Plow} ${tauP}
fix mypt all npt temp 300 800 100000 iso 1 1 ${tauP}
fix mypt all npt temp 300 800 100000 iso 1 1 2000

run ${N_melting}
run 1000000
Per MPI rank memory allocation (min/avg/max) = 61.86 | 61.86 | 61.86 Mbytes
Step KinEng PotEng Temp E_mol E_vdwl Pxx Pyy Pzz Pxy Pxz Pyz Lx Ly Lz Volume E_bond E_angle E_dihed 
       0    8240.4494    1876.8529          300    250.73621    1626.1167    1178.1434    1152.8719     175.6794   -23.340078   -23.616899   -35.915391           80           80           40       256000    238.36622    11.312738    1.0572539 
     100    4480.7965    5686.5519     163.1269     3836.288     1850.264    -55.14242   -61.861831   -1043.8215     142.2007    25.237267    89.897025    79.972645    79.972645    39.986322    255737.48    1407.0348    1198.2814    1230.9718 
     200    4216.6998    5969.4675    153.51225    4107.0894    1862.3782    108.02537   -457.72876   -749.95388   -308.42481   -82.978807   -269.12132    79.880201    79.880201      39.9401    254851.65    1671.7924    1022.5655    1412.7315 
     300    4265.7182    5926.3052     155.2968    4064.1523    1862.1529   -57.018243   -381.08779   -1703.2987   -202.00292   -67.270482    210.43054     79.71735     79.71735    39.858675    253296.14    2051.8891     1020.932    991.33122 
     400    3541.8258    6650.0224    128.94294    4868.8953     1781.127    -2087.581   -889.27131   -1725.7403     567.2188    93.721033    79.705891     79.49416     79.49416     39.74708    251174.58    2321.6967    1188.9006    1358.2981 
     500    3965.1151    6186.2207    144.35311    4360.6092    1825.6115   -323.20853   -172.80849   -36.979578    172.05736   -395.29782    -321.0043    79.267773    79.267773    39.633887    249034.77    1973.5478    1080.6892    1306.3722 
     600    4089.3237    6038.6949    148.87502    4233.3569    1805.3379    809.68419    9.4600167   -1647.9132   -539.39877    94.376177    274.99514     79.08021     79.08021    39.540105    247271.15    1881.5318    1101.0641     1250.761 
     700    4607.5922     5499.779    167.74299    3856.4912    1643.2878   -1566.2854   -1012.7147   -2177.2709    413.86928    70.023963      363.993    78.903389    78.903389    39.451695    245616.19    1667.9466    954.62594    1233.9186 
     800    4239.8941    5837.6827    154.35666     4098.335    1739.3477   -1794.0443   -937.46865    183.72152    770.35867   -1.6956245   -477.48916    78.707297    78.707297    39.353648     243789.5    1687.1961    1153.4562    1257.6827 
     900    4677.7828    5373.0351    170.29834    3641.4446    1731.5905    1986.0676    463.14687    663.08715   -620.30692   -399.80132   -590.36729    78.511782    78.511782    39.255891    241977.23    1465.7244    994.77783    1180.9424 
    1000    4473.6862    5577.0428    162.86804    4001.9623    1575.0805    604.21289   -74.945077   -2315.2151   -383.47002     181.6162    411.80999    78.328107    78.328107    39.164053    240282.91    1716.7011    1048.7372     1236.524 
    1100    4212.3479    5838.4961    153.35382    4380.9892    1457.5069    -2406.931   -1012.0004   -1659.8171     900.9229    228.89496    299.38412    78.148667    78.148667    39.074333    238635.32    1941.4656    1248.5035      1191.02 
    1200    4121.6339    5914.9464     150.0513    4366.7554     1548.191    214.59508    3.2855192    1045.8609    164.94596   -70.587774   -701.18079    77.981729    77.981729    38.990864     237109.3    1908.3438    1168.5465    1289.8651 
    1300    4531.8331    5489.7815    164.98493    4016.2863    1473.4953    1949.6737    779.70887   -845.32012   -787.04363   -200.37846    25.334704    77.839054    77.839054    38.919527    235810.24    1757.3855    1066.5588    1192.3419 
    1400    4292.8743    5726.7672    156.28544    4431.8436    1294.9235   -715.09875   -638.18842   -3588.6452    33.816219    706.96392    747.14554    77.703896    77.703896    38.851948       234584    1928.0596    1225.6416    1278.1425 
    1500    4719.8742    5283.7596    171.83071    4003.7925    1279.9672   -1010.9665   -130.44528   -219.90714    413.38792   -12.982643   -255.76621    77.565342    77.565342    38.782671    233331.38    1640.0861    1011.3909    1352.3155 
    1600    4542.3391    5449.9229    165.36741    4143.6904    1306.2326    654.79562    603.71349     1013.003   -242.39668   -317.12072   -530.24732    77.438598    77.438598    38.719299    232189.43    1773.3574    1113.0319     1257.301 
    1700    4385.1701    5604.9663    159.64554    4445.4478    1159.5185    82.495381    -300.6397    -1967.833   -264.43231    68.494022    335.25323    77.322571    77.322571    38.661286    231147.32     1837.622    1222.1438     1385.682 
    1800    4680.8624    5302.8879    170.41045    4267.2886    1035.5993   -1406.7617   -739.31481   -2749.0163   -138.40246    569.69048    759.21295    77.203868    77.203868    38.601934     230084.4    1849.6587    1063.8064    1353.8235 
    1900    4550.8934    5428.4353    165.67883    4333.8765    1094.5588   -531.52115   -108.46665    729.61523    74.665828   -213.77232   -360.73828    77.085844    77.085844    38.542922     229030.8     1765.101    1153.9724    1414.8031 
    2000    4578.3203    5395.6523    166.67733     4353.769    1041.8834    283.78864    40.386772    17.303678   -78.538042    -344.0831   -270.44314    76.985823    76.985823    38.492912    228140.44    1720.1013    1148.9976      1484.67 
    2100    4737.8852    5230.9002    172.48641    4343.3871    887.51313   -1137.4482   -744.81075   -1996.7506    108.30791    205.60776    334.35496    76.894902    76.894902    38.447451    227333.09    1828.4077    1122.6914     1392.288 
    2200    5186.7968    4773.7331    188.82939    3948.5596    825.17353   -1117.1176   -603.54855   -597.20407      221.832   -50.896461    58.278807    76.796079    76.796079    38.398039    226457.72    1613.4625    972.87933    1362.2178 
    2300    4814.3836    5144.1636     175.2714    4253.4198    890.74381    -546.3519   -44.523471    1536.2962     266.7683   -198.35098   -563.64171    76.700118    76.700118    38.350059    225609.88    1760.2385    1170.4874    1322.6939 
    2400    5104.8877    4847.8079    185.84743    4059.9352    787.87269    695.02992    250.66427    15.159269   -166.69198   -412.84113   -223.87486    76.616246    76.616246    38.308123    224870.57    1647.4129    1093.3002    1319.2221 
    2500    4781.9093    5176.7207    174.08914    4547.4545    629.26618   -1629.3864   -1221.0001   -2181.6319    118.68806    423.77377    620.24044     76.53246     76.53246     38.26623    224133.63    1923.9575    1175.6912    1447.8058 
    2600     4922.832    5030.5733    179.21955     4404.998    625.57529   -485.98249   -446.46417   -98.703997    404.25687   -19.097562   -77.148031    76.436474    76.436474    38.218237    223291.37    1819.0333    1187.4339    1398.5308 
    2700    5241.1547    4703.4972    190.80833    4060.4663    643.03083    1407.6467    496.14981    1461.7684   -325.03902   -299.17965   -331.98319    76.347145    76.347145    38.173573    222509.43    1634.6598    1046.5814    1379.2252 
    2800    5087.2815    4854.0339    185.20646    4320.8125    533.22144    740.23738    87.954905   -904.45882   -225.29722   -98.563189    304.06066    76.271685    76.271685    38.135842     221850.3    1729.3965    1144.0303    1447.3856 
    2900    5118.5589    4822.5738    186.34514    4395.2073     427.3665   -1305.1148   -814.25458   -1782.5546    0.5365877    417.57094    636.05008    76.199784    76.199784    38.099892    221223.48    1815.2293    1113.2015    1466.7765 
    3000    5237.9468     4699.402    190.69155    4242.8483    456.55363    628.13992    423.00937     403.6782   -21.131467   -225.67845    -277.2133    76.128724    76.128724    38.064362    220605.16    1703.0218    1051.9047    1487.9218 
    3100    5172.1914    4764.0282    188.29767    4269.1388    494.88938    1531.2199    1101.3198    1689.3197   -542.74663   -526.82056    -480.7562    76.064963    76.064963    38.032482    220051.32    1699.6344    1098.4481    1471.0563 
    3200    5172.8836    4761.6229    188.32287    4412.4405    349.18248   -732.47127   -328.68529   -1492.2188    51.014608   -191.32752    388.52746    76.015646    76.015646    38.007823    219623.59    1820.8051    1134.6991    1456.9364 
    3300    5213.6832    4720.5568    189.80821    4389.5955    330.96129    -1049.077   -478.96686   -834.53864   -21.662831    137.65276    366.91581    75.967792    75.967792    37.983896    219209.07    1778.4074     1122.042    1489.1461 
    3400    5213.9645    4721.9441    189.81845    4309.4812    412.46286     335.2694    666.93949    508.11026   -216.52631   -173.26337   -494.12692    75.922707    75.922707    37.961353    218819.01    1743.1863    1061.0712    1505.2237 
    3500    5124.1427    4809.2751    186.54842    4429.2721    380.00296    100.11828    184.68671      455.471   -276.04468   -326.68454   -276.53441    75.888682    75.888682    37.944341    218524.96    1731.1101    1204.2484    1493.9136 
    3600    5286.9867    4645.7505    192.47688    4398.8949    246.85554   -1541.8714   -1330.1621   -1695.6015    260.90436    71.302345    737.62895     75.85357     75.85357    37.926785    218221.77     1824.631    1086.1484    1488.1155 
    3700    5520.0063    4407.9788    200.96014     4133.591    274.38774   -952.52033   -448.22924   -366.53008    141.21773    235.65341    176.19016      75.8002      75.8002      37.9001    217761.48     1672.323    997.24742    1464.0207 
    3800    5073.5929     4857.235    184.70811     4509.962    347.27299    379.32059    341.97602    884.46617   -174.78756    95.666534   -701.10922    75.733342    75.733342    37.866671    217185.77    1818.4775    1187.3507    1504.1338 
    3900    5279.1861    4646.3876    192.19289    4402.0916    244.29604   -619.33922   -889.45957   -909.59825    43.390452    328.68679    134.07352    75.668154    75.668154    37.834077    216625.42    1831.1249    1092.0336    1478.9331 
    4000    5296.7844    4628.6196    192.83357    4424.2737    204.34586   -813.24192   -744.05317   -1706.7944   -39.175308    266.86585    776.01428    75.600139    75.600139     37.80007     216041.8    1857.7974    1079.5509    1486.9255 
    4100    5196.3924    4729.5392    189.17873    4470.3399    259.19929    356.15119    89.444386     75.36672    63.724622   -63.203327    28.745767    75.533123    75.533123    37.766562    215467.78    1768.4807    1171.4074    1530.4517 
    4200    5297.8204    4623.8674    192.87129    4369.0033    254.86414    696.22812    587.21119     1358.726   -254.30603   -471.14691   -705.65731    75.475348    75.475348    37.737674    214973.72    1677.8329    1142.5145    1548.6558 
    4300    5315.6256    4605.0942    193.51951     4440.454    164.64028   -1014.7652   -1191.2343   -319.96228    371.12167    63.100289     198.4018    75.421366    75.421366    37.710683    214512.79     1823.268    1091.6471    1525.5389 
    4400    5193.5266    4727.7247     189.0744     4558.763    168.96166    39.194546   -431.77705   -914.34213    110.40649    244.72737    271.42044    75.363403    75.363403    37.681701    214018.59    1807.4193    1181.0866    1570.2571 
    4500    5316.2156    4600.9331    193.54098    4370.8716    230.06152    842.61858    939.60677    998.55979   -119.33197   -203.80372   -157.55919    75.302864    75.302864    37.651432    213503.25    1705.4456    1105.1649    1560.2611 
    4600       5271.3    4646.2798     191.9058     4457.633    188.64689    294.21196    193.56594    370.62088   -58.675531    -116.7092   -491.83998    75.248414    75.248414    37.624207    213040.44    1745.7673     1146.805    1565.0606 
    4700    5118.6896    4801.4733     186.3499    4672.2878    129.18552   -703.18951   -946.09084    -1028.899    413.74452    236.36603    150.44315    75.194656    75.194656    37.597328    212584.18    1942.3648    1183.0759    1546.8471 
    4800    5211.4041    4705.4872    189.72524    4544.2523    161.23497   -186.26046   -263.53239   -349.64404    15.320538     196.1625    5.5133109     75.13584     75.13584     37.56792    212085.73     1839.311    1174.3844    1530.5569 
    4900    5267.5814    4648.0312    191.77042    4478.7575    169.27373    355.14187     804.2303    652.71766   -481.85128   -34.283476   -502.49694    75.075281    75.075281     37.53764    211573.32     1761.922    1150.3476    1566.4879 
    5000    5329.4334    4579.7797    194.02219    4460.9697    118.81008   -748.77054   -377.90778   -722.79007    261.61952    99.746427   -79.526771    75.016258    75.016258    37.508129     211074.7    1769.1903    1123.8691    1567.9103 
    5100    5285.8973    4623.4726    192.43722    4549.1604    74.312179   -387.96557   -978.40883   -1211.5307    140.09152   -58.967792    162.06079    74.957637    74.957637    37.478818    210580.26    1787.0702    1163.9774    1598.1128 
    5200     5315.781    4592.1658    193.52516    4487.4461    104.71969   -107.73794    321.04356    55.251303   -398.28207    252.66934    40.959574    74.890287    74.890287    37.445144    210013.15     1763.917    1115.0493    1608.4798 
    5300    5220.9824    4686.9459    190.07394    4571.3017    115.64424   -101.81371    754.25186    431.00388   -436.39255   -172.38978   -151.10366    74.824903    74.824903    37.412451    209463.56    1789.4607    1227.3664    1554.4745 
    5400    5367.1765    4536.4411    195.39625    4502.1593    34.281796   -254.83594   -489.74127   -687.84299    263.88446    158.11649    62.891398    74.767733    74.767733    37.383866    208983.81    1792.7993    1149.0518    1560.3083 
    5500    5429.8789    4472.1457    197.67899    4477.0191   -4.8733801   -148.96355   -352.76006   -799.04949    261.03711   -321.53599    363.34623    74.720658    74.720658    37.360329    208589.32     1722.606     1156.652     1597.761 
    5600    5307.4848    4597.5963    193.22313    4554.6118    42.984497   -112.42684    464.58477    482.02648   -285.70749   -109.56617    55.533256    74.679012    74.679012    37.339506    208240.74    1781.7148    1203.4367    1569.4604 
    5700    5320.4815     4583.181    193.69629    4555.4127    27.768327   -587.91808    101.46952    527.85156     170.4508   -558.37492   -316.38383    74.638267    74.638267    37.319133    207900.07    1791.2815    1188.9187    1575.2125 
    5800    5345.7333    4556.4917     194.6156    4562.8416   -6.3499512    130.57516   -850.64937   -907.77531    252.73047    238.90473    12.432584    74.594041    74.594041    37.297021    207530.73    1819.9425    1165.5073    1577.3918 
    5900    5286.9281    4615.6504    192.47475    4614.4138    1.2365809   -586.42365   -22.873738   -896.59247    3.3556672    20.497436    239.40729    74.544351    74.544351    37.272175    207116.27    1808.2428    1195.7236    1610.4474 
    6000    5332.3783    4568.4309     194.1294     4549.771    18.659895    206.91459    395.77837    981.02813   -219.99147    61.132395   -135.52142    74.492193    74.492193    37.246097    206681.83    1754.1064    1157.8159    1637.8487 
    6100    5418.2566    4480.5187    197.25587    4548.9782   -68.459486   -466.76763   -118.13879    108.28133    196.13849   -2.3080263   -421.80786    74.442915    74.442915    37.221458    206271.93    1816.5405    1137.8706    1594.5671 
    6200    5267.6324    4633.0046    191.77227    4722.5121   -89.507512   -87.791645   -443.20983   -997.03279     217.9878    299.20475      182.717    74.399085    74.399085    37.199542    205907.79    1895.7006     1209.894    1616.9175 
    6300    5373.3458     4523.491    195.62085    4592.4034   -68.912409   -33.721226    370.97999    188.93172    170.19207   -26.210979   -155.09415    74.352657    74.352657    37.176328    205522.55     1748.406    1197.0532    1646.9441 
    6400    5427.3147    4469.0681    197.58563    4580.9396   -111.87151   -405.58772    152.36315    789.03852    26.832903    -158.1822    -196.2324    74.307434    74.307434    37.153717    205147.77    1781.4295    1172.2738    1627.2363 
    6500    5347.7916    4546.9733    194.69053    4691.3826   -144.40934   -596.82361   -104.53525   -1094.3377    7.1646712    67.637015    19.322995    74.261972    74.261972    37.130986    204771.46     1816.812    1221.5721    1652.9986 
    6600    5402.7089    4491.9907    196.68984    4642.5028   -150.51212    223.34304    139.44783    -581.2632   -82.479077     359.6979    214.41936    74.212929    74.212929    37.106465    204366.04    1815.4699    1219.0423    1607.9906 
    6700    5407.8149    4485.4798    196.87573    4613.1613   -127.68149    541.31264    496.54805     631.2372   -329.40737   -135.96534   -367.66314    74.161494    74.161494    37.080747    203941.41     1782.926    1162.8387    1667.3966 
    6800    5388.4682    4505.1348     196.1714    4679.0464   -173.91162   -481.27105   -255.97282   -434.99242   -309.02336    95.513422    334.01566     74.11692     74.11692     37.05846     203573.9    1833.9369    1225.0186    1620.0909 
    6900    5397.1126    4495.6956     196.4861    4700.5954   -204.89985    91.562431   -563.35536    -710.4045    62.265692   -294.88858    374.62234    74.072215    74.072215    37.036107    203205.75    1842.8861    1248.9631    1608.7462 
    7000     5441.808     4448.097    198.11327    4616.2269    -168.1299    246.38601    358.91545     236.4634   -267.89679    203.11506   -272.39037    74.019722    74.019722    37.009861    202774.04    1799.1681    1183.2207    1633.8382 
    7100    5368.5373    4523.2387     195.4458    4717.0109   -193.77217    143.77271    444.68903    -100.1292   -357.75112    117.93094   -237.77117    73.970128    73.970128    36.985064    202366.73    1845.4702    1233.2629    1638.2777 
    7200    5400.1303    4486.9414    196.59596    4754.5336   -267.59219   -908.38975    -863.5893   -510.96284    288.66875    102.74348     180.9301    73.922135    73.922135    36.961067    201973.09     1848.857    1227.7159    1677.9606 
    7300    5421.0492    4465.5951    197.35753     4704.455   -238.85986    134.84701   -307.14134   -431.26272    639.64195   -363.62818    13.175955    73.872582    73.872582    36.936291    201567.19     1803.509     1194.868     1706.078 
    7400    5387.1833    4499.4728    196.12462    4739.8975   -240.42468     -211.773    339.57919    -268.0862    149.83701    152.35693   -218.70688    73.822238    73.822238    36.911119    201155.37    1828.0518    1222.8521    1688.9936 
    7500    5384.7129    4501.2342    196.03468    4759.7287   -258.49447    55.980484   -49.988826   -52.461793   -303.67689   -65.884839    193.43508    73.772235    73.772235    36.886118    200746.89    1833.3683    1232.1013     1694.259 
    7600    5497.4634    4385.4104    200.13945    4684.6438   -299.23338    -201.4099   -1122.6168    158.43203    279.86437    308.33272   -34.031695    73.723683    73.723683    36.861842     200350.8    1818.7967    1183.1922    1682.6549 
    7700    5474.8924    4406.3211    199.31774    4681.8116   -275.49049     352.3739    -381.2245   -73.121803    241.84312    14.496803   -218.49733    73.666222    73.666222    36.833111     199882.7    1793.6412    1233.9855    1654.1849 
    7800    5464.7067    4416.3268    198.94692    4702.8135   -286.48671   -19.219529    66.763203   -183.24049    -17.03986    250.11497     93.37118    73.600673    73.600673    36.800337     199349.6    1784.1343    1226.1964    1692.4828 
    7900    5469.4644    4412.3733    199.12012     4737.772   -325.39874     183.9509   -467.31037   -404.48387    23.107734   -426.01457    477.07622    73.536462    73.536462    36.768231     198828.3    1875.8675    1212.4636    1649.4409 
    8000    5403.6786    4477.4611    196.72514    4814.7396   -337.27849    294.99683   -642.00545    634.57549   -109.86507     450.9344   -266.56135    73.474456    73.474456    36.737228    198325.77    1895.9624      1253.06    1665.7173 
    8100    5407.5923    4471.1692    196.86762    4827.9596   -356.79044    479.31733     160.1574   -413.95135    89.440562   -299.27416   -189.13416    73.420446    73.420446    36.710223    197888.73    1852.0685     1258.339    1717.5522 
    8200     5652.897    4222.1142    205.79813    4625.2423   -403.12814    214.75196    480.97763   -116.68639   -461.71376    134.70015    267.10578    73.378737    73.378737    36.689369    197551.67    1771.1135    1205.2239    1648.9049 
    8300    5595.7515    4278.5445     203.7177    4707.8255   -429.28096    135.81593   -174.04503    142.84645    573.66936   -689.04343    68.251126    73.340491    73.340491    36.670246    197242.93    1790.5933    1218.0524    1699.1798 
    8400     5526.492    4349.3432    201.19626    4782.1299   -432.78666   -286.22561   -150.65482    797.78774    133.82143     665.4896   -445.51316    73.308522    73.308522    36.654261    196985.11    1832.4555     1244.001    1705.6734 
    8500    5593.9713    4282.8346     203.6529    4744.5571   -461.72255    297.58523    658.16049   -980.72653   -35.911824   -125.91907    388.84793    73.289612    73.289612    36.644806    196832.71    1835.3502     1211.733    1697.4739 
    8600    5481.0718    4398.8666     199.5427    4885.3001    -486.4335    181.17497    397.99411   -474.47947   -688.26809    226.89442    97.694929    73.277564    73.277564    36.638782    196735.66    1887.3148    1273.0898    1724.8956 
    8700    5541.5636    4337.0831    201.74495    4806.5609   -469.47779   -349.37971    360.70547    631.07711    324.18742   -413.50534   -629.20582    73.272972    73.272972    36.636486    196698.67    1820.2038    1265.8334    1720.5237 
    8800    5545.2118    4332.9268    201.87777    4790.7102   -457.78339   -337.76103    550.76002   -12.786752    191.16543    76.512416    60.418345    73.272475    73.272475    36.636238    196694.67    1865.8633    1218.1136    1706.7333 
    8900    5525.4342     4353.559    201.15775    4828.2412   -474.68213   -42.036997    189.80462   -194.80481    9.0124096   -587.26349    506.01948    73.268246    73.268246    36.634123    196660.61     1901.115    1253.0017    1674.1245 
    9000    5534.3092     4342.402    201.48085    4788.2182   -445.81622    287.36174   -178.37092    177.45522    91.622109    261.58392   -48.136058    73.258247    73.258247    36.629124    196580.11    1836.0249    1235.0611    1717.1322 
    9100    5528.2887    4348.1287    201.26167    4800.6366   -452.50786   -282.10092    92.498647    471.96844    126.31948    75.922797   -560.48798    73.244726    73.244726    36.622363    196471.28     1814.897    1258.8486     1726.891 
    9200    5543.1355    4333.4044    201.80218    4811.9526   -478.54821   -591.22359    -363.4279   -761.91769    -228.3166    240.66902    224.56647    73.220995    73.220995    36.610497    196280.38    1842.4385    1251.2529    1718.2612 
    9300    5528.5015    4348.2779    201.26942    4805.0944   -456.81656   -193.10477   -204.34801   -638.14212    69.632045   -508.61338    22.152895    73.183926    73.183926    36.591963    195982.42    1888.2704    1255.7201    1661.1039 
    9400    5534.6738    4340.8913    201.49412    4800.2282   -459.33697   -218.13519   -330.32358    519.85303    490.61867    9.5489257   -383.90435    73.144305    73.144305    36.572152    195664.28    1847.6822    1249.2231    1703.3229 
    9500    5492.7292    4383.1613     199.9671    4907.1225   -523.96119   -826.99421   -687.03398   -490.59084    169.07783    496.06075    156.57037    73.104567    73.104567    36.552284    195345.55    1896.2036    1286.1264    1724.7924 
    9600    5561.6244    4313.9483    202.47528    4866.1444   -552.19612    -463.4175   -503.58123   -775.27735   -108.83758    244.08662     647.2886    73.056621    73.056621     36.52831    194961.45    1861.7486    1297.6143    1706.7815 
    9700    5580.7379    4294.1522    203.17113    4824.1383   -529.98617    314.43886     451.1386   -512.60358    91.141514   -383.89902    14.948388    73.007035    73.007035    36.503517    194564.74      1841.47    1275.0036    1707.6647 
    9800    5557.4868    4316.3117    202.32465    4834.9382   -518.62649    299.85799    270.64083    1354.8948   -80.754061    213.69275   -304.18446    72.968256    72.968256    36.484128    194254.87    1851.7472    1229.3858    1753.8052 
    9900      5582.14      4291.96    203.22217    4884.4216   -592.46153   -471.58432   -876.86049   -407.40841     164.6253    9.8528404    248.20652    72.939089    72.939089    36.469545    194022.02    1869.3818    1278.6479    1736.3919 
   10000    5640.6209    4231.6715    205.35121    4799.9565   -568.28498    237.02186    132.11605   -632.25462    -361.7506   -381.13894    196.79076    72.903297    72.903297    36.451648    193736.53    1825.0445    1251.0073    1723.9047 
   10100    5571.2719    4302.1862    202.82651    4838.3284    -536.1422    737.85647    456.16638    439.30273    170.77904   -296.98979   -493.10536    72.858622    72.858622    36.429311    193380.58    1871.1618    1267.1271    1700.0395 
   10200     5458.939    4415.5056    198.73694     4948.041   -532.53539    -14.72962    124.59225    949.78454   -326.07754    328.72486    130.69464    72.812626    72.812626    36.406313    193014.57    1935.2802    1303.5206    1709.2401 
   10300    5546.4594    4325.6513    201.92319    4934.7847   -609.13347   -491.80757   -486.57208   -1078.1517    67.173524   -197.72697    423.57432    72.768758    72.768758    36.384379    192665.92    1935.4639    1258.5985    1740.7223 
   10400    5602.6193    4268.4716    203.96773     4874.118   -605.64633   -211.85068   -70.571445   -836.94345     126.4043    53.634665   -191.46051    72.714729    72.714729    36.357365    192237.09    1883.0353    1278.4966    1712.5861 
   10500     5640.718    4228.5729    205.35475    4782.2776   -553.70478    25.712294    539.14808    1519.7558    50.024357    226.78872   -969.13314     72.65225     72.65225    36.326125    191741.98    1817.0285    1263.8908    1701.3584 
   10600    5564.4741    4304.7089    202.57903    4904.7052   -599.99635   -760.41947   -734.79883    139.04856    272.77393    41.739284    249.21044    72.601883    72.601883    36.300941    191343.47    1882.5689    1305.4634    1716.6729 
   10700    5560.8766    4309.4087    202.44806    4950.9222   -641.51359   -212.75367   -359.79499   -1520.6272   -500.28963   -240.63917    133.61571    72.560192    72.560192    36.280096    191014.04    1947.8347    1282.1374    1720.9502 
   10800    5509.0658    4362.5858    200.56185    4960.5424   -597.95665   -149.11403    53.333331    219.73762    443.75744    -88.52053   -82.061031    72.513681    72.513681     36.25684    190646.95    1930.6902      1304.76    1725.0923 
   10900    5669.6417    4197.0021    206.40774    4819.0344   -622.03228    143.98744    20.875499    696.11769    649.57618    493.41175   -552.52403    72.467683    72.467683    36.233841    190284.37    1837.5178    1262.7182    1718.7984 
   11000    5555.8889    4310.9036    202.26648    4955.8353   -644.93169    -746.5457   -433.67569   -435.30702    119.57981   -236.63384     860.1035    72.423449    72.423449    36.211724    189936.14    1876.1011     1311.643    1768.0912 
   11100    5599.7482    4268.5536    203.86321    4926.5099   -657.95633    212.46367   -48.958562    -429.6371   -255.61842    276.90463   -242.40923    72.380879    72.380879     36.19044    189601.41    1912.1131    1277.5486    1736.8482 
   11200    5567.2478    4301.1176    202.68001     4915.373   -614.25534    -219.9547    377.38318    930.22561    286.01867   -6.8538615   -96.026218    72.340284    72.340284    36.170142    189282.57    1864.1762    1313.8299     1737.367 
   11300    5633.2205    4234.3478     205.0818    4889.9976   -655.64977   -393.65822   -149.94224    594.12844    537.14631   -16.627326    133.53956    72.304285    72.304285    36.152142    189000.13    1869.6824    1296.4034    1723.9118 
   11400    5646.8781     4220.522    205.57901      4906.06   -685.53801   -26.799058   -78.248019   -1462.9775   -239.07151    113.31567    1073.7043    72.265183    72.265183    36.132591    188693.67    1867.0494    1293.3633    1745.6474 
   11500     5581.788    4286.4633    203.20935     4959.485   -673.02176   -294.77843   -569.75622   -652.29235    30.447871    693.17857   -684.80694    72.217921    72.217921    36.108961    188323.69    1875.2647    1316.7803      1767.44 
   11600    5577.0497    4290.4021    203.03685    4944.4241   -654.02195   -44.089775    757.68412    850.02874   -123.83847   -35.318767   -241.09412    72.163598    72.163598    36.081799    187899.03    1871.8469    1300.0518    1772.5254 
   11700    5539.2119    4325.7681    201.65934    5005.3234   -679.55528   -496.83457   -387.94502   -130.21113   -229.78709   -67.502843   -212.46753    72.103763    72.103763    36.051881    187432.02    1921.2436    1305.2027    1778.8771 
   11800    5586.7949    4276.8365    203.39163    4972.9179   -696.08139    265.31439   -87.802381   -2029.5453   -435.70597   -33.669487    240.42751    72.037915    72.037915    36.018957    186918.98    1874.1653    1309.2496     1789.503 
   11900    5616.0373    4247.2861    204.45623    4971.3313   -724.04515   -598.73241   -493.35119    217.95159   -15.215744    -16.70282   -471.48481    71.967205    71.967205    35.983603     186369.1    1885.8245    1339.2888    1746.2179 
   12000    5561.8242    4298.7695    202.48255    4959.1749   -660.40535    389.48789    775.11699    1260.3973   -60.837826   -638.89517   -10.804137    71.898373    71.898373    35.949187    185834.87    1875.1259    1292.9891    1791.0599 
   12100    5628.2021    4232.0217     204.8991    4947.7191   -715.69741    71.757599   -616.27885   -254.07686   -620.18219    70.345271    122.57464    71.845756    71.845756    35.922878    185427.16    1887.2551    1302.6813    1757.7827 
   12200    5684.5401    4174.6894    206.95012    4933.9099   -759.22054    382.52624   -729.36441   -1935.3036   -296.73206    532.65116     110.1956     71.80417     71.80417    35.902085    185105.36    1890.4224    1301.0404    1742.4472 
   12300     5642.536    4218.0928    205.42093     4938.946   -720.85316   -302.50994    196.68272    1125.0119     307.7413   -147.65747    42.036869    71.762129    71.762129    35.881064    184780.42     1853.548    1273.6034    1811.7946 
   12400    5577.7687    4283.4723    203.06303    5019.5289    -736.0566    177.45272   -61.855457    223.39128    220.95765   -430.14151    390.49683    71.721204    71.721204    35.860602    184464.47    1881.2917    1321.4829    1816.7543 
   12500    5570.5882    4292.3179    202.80162     5055.469   -763.15117    19.798165   -1497.3947   -270.51403   -161.71729     148.1026   -109.31238    71.685056    71.685056    35.842528    184185.69    1973.4291    1339.3267    1742.7132 
   12600    5624.6944    4238.1071     204.7714    5036.8029   -798.69574   -437.64607   -653.61462   -1028.1378    378.14352    91.438417   -258.60748    71.650449    71.650449    35.825224    183919.07    1949.7087    1306.3918    1780.7024 
   12700    5658.1138    4202.2585    205.98806    4930.0051    -727.7466   -645.31354    831.08279    1501.1749    118.37247   -454.22226    125.89045    71.614194    71.614194    35.807097    183640.02    1842.3501    1323.4622    1764.1928 
   12800    5688.4591    4170.7069     207.0928    4933.2003   -762.49341   -329.65877    -263.1879   -683.03663   -449.04803    650.61312    375.15103    71.576858    71.576858    35.788429    183352.95    1896.3177    1282.3697    1754.5129 
   12900    5564.0827    4296.5485    202.56478    5081.1738   -784.62528   -391.79958   -1197.9586   -1233.9114   -221.71653    522.48769    213.67548    71.530437    71.530437    35.765219    182996.44    1954.3691    1350.2902    1776.5144 
   13000    5624.1228    4235.8926    204.75059    4993.4105   -757.51787   -67.332803    297.63508   -518.25277    248.17786   -162.97479    55.599027    71.476174    71.476174    35.738087    182580.29    1902.8519    1327.2888    1763.2698 
   13100    5575.6697    4285.1961    202.98661      5031.83   -746.63394   -954.44236    3.8663817    810.27462    237.20384   -252.75672   -256.85486    71.419908    71.419908    35.709954    182149.45    1899.0537    1351.5916    1781.1848 
   13200    5621.5298    4238.5973    204.65619     5038.422   -799.82464     308.3759   -749.56283    -719.9434    -185.2805    139.81968   -21.924406     71.36873     71.36873    35.684365    181758.15    1938.1495    1344.2191    1756.0534 
   13300    5630.8277     4227.917    204.99468    5044.1017   -816.18475   -373.22533   -757.43297   -696.85078   -50.110898    217.38054    185.70416    71.320569    71.320569    35.660285    181390.45    1904.0911    1301.5751    1838.4355 
   13400    5557.7871    4302.2614    202.33558    5047.2883   -745.02691    592.55809    879.47171    93.672633   -21.747731   -441.49943    145.37916    71.269592    71.269592    35.634796    181001.77    1916.2714    1362.5646    1768.4524 
   13500    5684.5624    4172.6867    206.95094    4955.8394   -783.15267    18.718268   -193.42735    336.03716    64.960452    83.829987     -571.516    71.220713    71.220713    35.610356    180629.61    1897.7427    1307.5386     1750.558 
   13600    5685.3278    4170.7326     206.9788    4987.2385   -816.50588    402.45428   -624.74323   -1678.0227   -222.02144    385.50603   -176.31333    71.172801    71.172801      35.5864    180265.32    1916.1734     1310.335      1760.73 
   13700    5630.2456    4226.3068    204.97349    5030.2642   -803.95736   -1064.8661   -161.83807   -450.73202   -45.397199   -26.268715    127.96548    71.119257    71.119257    35.559628    179858.77    1915.3683     1329.743    1785.1528 
   13800    5646.1873       4210.1    205.55386    4966.0504   -755.95035    -270.3913    854.77657    1120.6244   -49.778373   -596.63734    99.599097    71.056969    71.056969    35.528484    179386.62    1870.0064    1332.6249    1763.4191 
   13900    5606.3997    4250.0466    204.10536    5039.1297   -789.08307   -112.35609   -662.29305    311.91143   -186.41079   -64.324761   -157.20261    70.998017    70.998017    35.499009    178940.51    1961.2309      1340.36    1737.5387 
   14000    5647.7485    4206.6226     205.6107    5029.0382   -822.41561   -712.14514   -1518.3029   -794.44603     491.7787    79.220786    665.57366    70.941785    70.941785    35.470893    178515.67     1975.904    1331.4742      1721.66 
   14100    5572.3946    4281.9396    202.86738    5110.9572   -829.01766   -350.38619    439.31455    179.71176    5.0079411    65.701454     72.93181    70.885156    70.885156    35.442578    178088.51    1910.7915    1365.3841    1834.7817 
   14200    5708.9497    4143.3547    207.83877    4962.1501   -818.79535    396.93673    500.49631   -1.1686953    -50.11926    85.835144   -87.350353    70.833323    70.833323    35.416662    177698.13    1875.1003    1303.4866    1783.5632 
   14300    5639.4336    4214.2395    205.30799    5060.1762   -845.93671    466.63697    -384.4678   -175.04237   -50.692026   -122.15561    -7.188533    70.790967    70.790967    35.395484    177379.55     1944.132    1329.5404    1786.5038 
   14400    5653.2049    4200.8146    205.80934    5082.9783   -882.16378   -1034.0922   -547.99804    367.05386    452.93396   -239.85077    297.86159    70.754808    70.754808    35.377404    177107.87    1981.5247    1322.1789    1779.2747 
   14500    5651.2061    4203.4295    205.73657    5022.5499   -819.12038    317.36566    1301.1232    102.97303   -769.60952    416.00864    -443.1784    70.717904    70.717904    35.358952     176830.9    1878.6848    1322.0023    1821.8628 
   14600    5630.2068    4225.5578    204.97208    5087.1463   -861.58851    415.90037   -128.97796   -1227.9771    56.091846    538.50086    115.45536    70.685521    70.685521     35.34276    176588.08    1959.7995    1325.6549    1801.6919 
   14700    5654.0228    4202.1455    205.83912    5069.8455   -867.70001   -430.56889   -945.73313    106.77886    172.42535   -524.70543    75.436804    70.648928    70.648928    35.324464    176313.98    1983.5431    1338.2649    1748.0375 
   14800    5632.2619    4221.3171     205.0469    5058.3077   -836.99064   -109.90743   -279.85529    498.95742    17.270828    -355.7747    317.53357    70.607218    70.607218    35.303609    176001.88    1927.7916    1350.0842    1780.4319 
   14900    5683.2427    4168.6732    206.90289    5039.5431   -870.86991    152.09074    548.90305    -1556.827   -310.55842    748.17092   -255.42362    70.565714    70.565714    35.282857    175691.69    1906.4069    1336.7995    1796.3367 
   15000    5830.3748    4021.1763    212.25935    4926.1101   -904.93384   -55.477306   -829.83119   -777.62389    206.08762    243.12665   -533.15574    70.521493    70.521493    35.260747     175361.6    1901.7711    1309.2953    1715.0437 
   15100    5725.9272    4127.6135    208.45685    5035.1143   -907.50087   -926.10651   -222.08227   -49.592276    215.08098   -54.789332    -266.9247    70.470221    70.470221    35.235111     174979.4    1947.8314    1329.4043    1757.8786 
   15200    5632.0786    4220.4027    205.04022    5077.3274   -856.92475    273.26043    691.56183    1435.3521    -363.1652    5.2060448   -177.15101    70.417921    70.417921     35.20896    174590.09    1912.1513    1345.4083    1819.7677 
   15300    5675.3623    4177.5461      206.616    5099.2383   -921.69225   -11.064643    632.07824    -1455.495   -37.503603    334.51764   -120.32033    70.372425    70.372425    35.186213    174251.91    1966.3752    1389.8869    1742.9762 
   15400    5666.7342    4186.0393    206.30189    5116.7528   -930.71355   -616.47759    -1151.168    721.68249    596.42065   -307.95213   -77.801208    70.322906    70.322906    35.161453    173884.33    1989.3801     1356.478    1770.8947 
   15500    5720.2005     4130.162    208.24837    5048.8096   -918.64769   -142.99697    325.08147   -70.207743   -58.518615   -84.409928    120.55232    70.271222    70.271222    35.135611    173501.22    1924.7832    1329.4847    1794.5418 
   15600    5655.1047    4196.1013    205.87851    5074.5479   -878.44669    580.03119     625.3785    744.54792   -418.33442    44.612837   -129.88761    70.220548    70.220548    35.110274    173126.14    1918.7059    1400.7802    1755.0618 
   15700    5663.3464    4188.4098    206.17855    5141.0082   -952.59841   -78.561569    -291.4057   -1344.4547   -48.348123    247.53899      119.135     70.17183     70.17183    35.085915    172766.05    2003.9924     1353.899    1783.1169 
   15800    5709.6434    4140.4341    207.86403     5097.757   -957.32287   -1362.1039   -1142.4515    358.15006    994.40352   -653.64003     77.86818    70.119404    70.119404    35.059702    172379.12    1965.8432    1357.2111    1774.7026 
   15900     5626.302    4223.5898    204.82992    5121.4126   -897.82283    675.62507    631.07787    128.06634   -391.38264    31.841247   -30.263217    70.067377    70.067377    35.033688     171995.7    1930.5613    1382.2713      1808.58 
   16000    5714.4084    4134.3951     208.0375    5095.2091   -960.81402   -316.65637    330.10925   -395.16496   -106.65787    394.69321   -269.40152    70.017974    70.017974    35.008987    171632.14    1936.4527    1368.7333    1790.0231 
   16100    5653.7654    4196.2513    205.82975    5181.7346   -985.48326    -127.2514   -1430.9349   -1293.1569    374.97028   -33.457242    441.99039    69.970952    69.970952    34.985476    171286.58    1989.5991     1384.864    1807.2715 
   16200    5620.7485    4228.0542    204.62774    5178.8743   -950.82009   -624.48236   -1138.4172    656.71526    796.65248   -354.11464    97.346516    69.919395    69.919395    34.959698    170908.24    1992.0206    1365.4778    1821.3758 
   16300    5714.4271    4132.3175    208.03818    5061.9724    -929.6549    1059.1442    1001.2207   -267.86919   -621.34047      425.911   -105.48805    69.868153    69.868153    34.934077    170532.75    1901.7464    1374.2561    1785.9699 
   16400    5661.9639    4185.4401    206.12822    5164.6461   -979.20599   -971.69357   -325.19846   -699.35351   -284.23971    485.16215   -223.69845    69.821619    69.821619    34.910809    170192.23    1958.8555    1408.1843    1797.6064 
   16500    5740.1879    4105.8008    208.97603    5091.8233   -986.02248   -618.65776   -767.03869   -409.70235     221.8168    161.16293   -49.934192     69.77085     69.77085    34.885425    169821.25    1940.7476    1373.1284    1777.9473 
   16600    5671.6472    4174.9609    206.48075    5146.6108   -971.64991   -422.50348   -136.80535    931.61866     286.7903    73.482813   -135.89657    69.718436    69.718436    34.859218    169438.82    1959.2281    1375.1651    1812.2176 
   16700    5718.6101    4127.3039    208.19047    5113.5487   -986.24473    69.960854    591.46353   -686.55262   -708.43535    454.48742   -159.41283       69.665       69.665      34.8325    169049.52    1991.9318    1354.2899     1767.327 
   16800    5705.3581    4139.3158    207.70802    5097.9581   -958.64234   -133.89115    -31.50524    788.92968    103.83545   -591.52821    -71.00481     69.61179     69.61179    34.805895    168662.45    1936.1098    1387.8308    1774.0175 
   16900    5665.5449    4180.1371    206.25859    5176.1293   -995.99224   -814.55697    -707.0553    48.924871    77.019762    -98.07722    690.48201    69.568495    69.568495    34.784247    168347.95    1981.5803    1379.7533    1814.7957 
   17000    5704.8609    4139.2722    207.68992    5107.0014   -967.72925   -201.95396    170.33275   -163.88033    78.098819    221.28598    153.17734     69.52584     69.52584     34.76292    168038.48    1944.6228    1367.5083    1794.8702 
   17100    5705.9329    4137.6348    207.72895    5132.9321   -995.29731   -50.277412    165.33769   -751.89684   -539.97167    288.49068   -571.87879    69.481429    69.481429    34.740714    167716.67    1987.9565    1347.5914    1797.3841 
   17200    5782.6743    4060.2231    210.52278    5096.4397   -1036.2167   -857.04534   -439.09331    269.38746    834.70953   -827.47519   -231.66281    69.438962    69.438962    34.719481    167409.33    1978.9831    1349.4907    1767.9659 
   17300    5771.7514    4073.0757    210.12512      5090.97   -1017.8943    561.41496   -1275.9084   -44.263212   -268.92356     110.5239    316.45708    69.395779    69.395779    34.697889     167097.2     1968.139    1359.7605    1763.0704 
   17400     5738.857    4105.8079    208.92757    5108.1899    -1002.382   -323.97914    420.43154   -93.675518    32.948891   -74.923999   -230.97596     69.35101     69.35101    34.675505    166774.01    1978.9836    1370.8782    1758.3281 
   17500    5676.5302    4167.8488    206.65852    5203.7873   -1035.9385   -31.713637   -628.80317   -269.38925   -289.11137    -376.9825    227.07121    69.302353    69.302353    34.651177    166423.23     2007.609    1374.8502     1821.328 
   17600    5589.2737    4255.6703    203.48188    5290.5301   -1034.8599   -649.59997    -553.0627   -823.34341    615.87708   -427.54205    583.15937    69.247144    69.247144    34.623572    166025.81    2053.3824    1398.4154    1838.7323 
   17700    5721.3624    4123.0329    208.29067    5135.5462   -1012.5133    464.64005   -227.10629   -149.09008   -800.09827    590.33967    103.40881    69.186282    69.186282    34.593141    165588.42    1990.1829    1351.5758    1793.7875 
   17800    5708.2661    4133.5309    207.81389    5117.1585   -983.62761    95.900599    657.23575   -327.26925    82.546782   -69.606801   -306.15417    69.126539    69.126539     34.56327    165159.84    1957.2213    1388.8506    1771.0866 
   17900    5770.2515    4069.7807    210.07052     5115.342   -1045.5614    155.61707   -475.06107    373.20526   -173.44559   -185.87944    162.41967    69.071658    69.071658    34.535829    164766.78    2001.0291    1337.6499     1776.663 
   18000     5667.542    4171.9438     206.3313    5203.6396   -1031.6957   -45.456966   -51.022732   -693.73761    31.674027     135.6387    584.45145    69.012686    69.012686    34.506343    164345.11    2026.0369    1360.8573    1816.7453 
   18100    5725.6944    4112.9362    208.44838    5156.6034   -1043.6672    509.06974   -27.543514   -133.73514   -7.8835512    31.046714   -276.78515    68.950219    68.950219     34.47511    163899.25    1965.5335    1385.3567    1805.7133 
   18200    5783.6277    4053.2333    210.55749    5132.9307   -1079.6974    79.978141   -149.54224   -197.34364     320.4872   -87.224078   -327.49632    68.888289    68.888289    34.444144    163458.01    1928.2869    1386.8354    1817.8085 
   18300    5775.5857    4060.8881    210.26471    5140.0215   -1079.1335    -910.7855   -563.68628    861.07827    339.63199   -147.54445   -162.79505    68.828727    68.828727    34.414363    163034.38    1973.2856    1349.9323    1816.8037 
   18400    5702.7854    4135.4987    207.61436    5212.7472   -1077.2485   -388.02258   -761.95597   -886.88217   -3.7227536   -217.70417   -406.15792    68.772074    68.772074    34.386037    162632.14      2026.89    1348.0398    1837.8173 
   18500    5664.6306    4172.1226     206.2253    5235.8823   -1063.7597   -833.73051   -429.15242   -294.40693    170.45627   -73.871944   -550.08668    68.713852    68.713852    34.356926    162219.44    1988.4104    1379.8455    1867.6264 
   18600    5767.5613    4065.8243    209.97258    5149.8589   -1084.0346   -21.004655   -405.87648   -495.43696    444.81987   -166.32503   -114.68931    68.662977    68.662977    34.331489    161859.39    1960.7821    1360.8035    1828.2733 
   18700    5806.9939     4023.876    211.40815    5110.8854   -1087.0094   -942.81527   -526.08213    845.95804   -235.70226    160.05921    350.02757    68.612266    68.612266    34.306133    161501.03    1959.4636    1330.9637     1820.458 
   18800    5739.9081     4092.968    208.96584     5151.945    -1058.977    216.05762    256.19193   -315.07145   -70.775106    -39.68833   -220.34243    68.563216    68.563216    34.281608    161154.91    1955.9716    1383.3004     1812.673 
   18900    5714.7911    4118.8694    208.05143    5229.1055    -1110.236   -445.68615   -351.58095   -320.68926    451.54244     32.74402   -261.43216    68.521815    68.521815    34.260908    160863.16    2001.0048     1361.763    1866.3378 
   19000    5796.9606     4036.469    211.04288    5138.1593   -1101.6903    603.43434    795.69428   -339.45215    171.63934     167.5095    259.29702    68.480581    68.480581     34.24029    160572.92    1985.8832      1343.32    1808.9561 
   19100    5768.4372    4064.6613    210.00447    5196.4889   -1131.8276    580.22431   -26.826067    659.04766   -224.02958    200.70811    115.70966    68.438598    68.438598    34.219299    160277.78    1986.1902    1381.9307    1828.3681 
   19200    5839.3183    3993.4879    212.58495    5138.7885   -1145.3006   -84.403717   -274.75591   -1197.0886    184.65868   -114.21153      211.527    68.395351    68.395351    34.197675    159974.13    1996.1527    1354.1882    1788.4476 
   19300    5777.3313    4056.6486    210.32826    5236.7621   -1180.1135   -693.29394   -694.98133    194.07536    664.96472    123.23938    109.94686    68.351208    68.351208    34.175604    159664.58     2048.625    1385.3555    1802.7815 
   19400    5820.2644    4012.9976    211.89127    5187.1997   -1174.2021   -369.62578    351.77318   -111.28736    -728.0282    285.66541    280.65325    68.307331    68.307331    34.153665    159357.29    2004.8941    1393.2852    1789.0204 
   19500    5766.1861    4067.3942    209.92251    5221.4716   -1154.0773    793.36396   -669.30706    708.35979   -118.41856   -356.24994   -476.17417    68.265134    68.265134    34.132567    159062.15    1994.2241    1405.4103    1821.8372 
   19600    5817.2873     4016.288    211.78289     5216.161    -1199.873   -796.83882   -529.62692   -630.42124    158.10771   -512.08517    151.50348    68.228756    68.228756    34.114378       158808    2033.5059    1398.4082     1784.247 
   19700    5790.6246    4041.6574    210.81221    5230.2538   -1188.5964   -740.00709    456.25227   -126.68069    241.59951   -268.24926    88.939884    68.193324    68.193324    34.096662    158560.71    2013.8466    1392.1955    1824.2118 
   19800    5759.9107    4073.0412    209.69405    5252.6638   -1179.6226    31.234492    1305.8518    714.67035    -507.5394    305.13329   -883.07082    68.155558    68.155558    34.077779    158297.42    2011.7395    1392.5447    1848.3796 
   19900    5796.9829    4035.4992    211.04369    5217.4284   -1181.9292    656.15985   -300.28421    328.33565    337.42985   -83.927034   -548.76669    68.120141    68.120141     34.06007    158050.77    2012.4651     1391.433    1813.5303 
   20000    5844.0497    3987.6034     212.7572    5214.2498   -1226.6464   -152.99107   -440.10458   -1017.4825    234.46123    438.63151    540.07108    68.085173    68.085173    34.042587     157807.5    2038.8459    1375.3261    1800.0778 
   20100    5817.2982    4014.4673    211.78329    5224.7505   -1210.2832    384.67088    773.31089    143.34106   -427.28017   -39.746387    187.10999    68.043988    68.043988    34.021994     157521.3    1994.9896     1405.457    1824.3039 
   20200    5838.2959    3993.1472    212.54773    5214.6317   -1221.4845    342.66545    207.26423    746.04309   -600.71648    744.58166   -208.93201    68.003839    68.003839    34.001919    157242.63    1995.9423    1379.2237    1839.4657 
   20300    5789.0284    4042.7875     210.7541    5319.9634   -1277.1759    -585.5073   -1954.0054    129.40783    444.67274   -179.71144   -181.55895    67.969194    67.969194    33.984597    157002.43    2077.9391    1410.1828    1831.8415 
   20400     5874.431    3956.4981    213.86325    5250.2777   -1293.7795   -831.20016   -132.45129   -1060.6387    107.37984    360.96944    159.96367    67.934544    67.934544    33.967272    156762.44     2021.311    1395.4125    1833.5541 
   20500    5885.1468    3945.3992    214.25337    5201.1462    -1255.747    396.67682    57.295679    112.64952    57.453306   -245.23571   -240.24135    67.895133    67.895133    33.947566    156489.76    1987.1928    1393.9628    1819.9906 
   20600     5843.447    3987.8005    212.73526    5225.3175    -1237.517    499.88201    465.20191    395.85296    -435.8322    369.79024   -108.26172        67.86        67.86        33.93    156246.96      2008.85    1409.6401    1806.8275 
   20700    5813.1751    4019.6783    211.63318    5328.3999   -1308.7216   -653.49801   -1128.3842   -956.49366    415.46094   -495.65529    632.06054    67.839901    67.839901    33.919951    156108.17    2067.3398    1399.7025    1861.3576 
   20800    5825.8415    4006.6371    212.09431    5252.5462   -1245.9091    155.62621    842.49405    -270.5243   -467.07083    299.29558    426.34007     67.82029     67.82029    33.910145    155972.82    1992.4096    1410.6877    1849.4488 
   20900    5772.2356    4060.4577    210.14275    5253.2269   -1192.7692    561.27628     160.9863    359.27592   -43.975974    161.11299   -707.30057    67.805717    67.805717    33.902858     155872.3    1971.5078    1421.8849    1859.8342 
   21000    5851.1197    3981.5229    213.01459    5248.2834   -1266.7606   -55.013964    336.94909   -94.880287   -289.00983    476.26762   -56.450821    67.797222    67.797222    33.898611    155813.72    1966.0301    1420.6207    1861.6326 
   21100    5845.7603     3988.389    212.81947    5276.4262   -1288.0372   -393.35353   -930.49581    -995.0078    292.64368   -856.22672     95.50248    67.785648    67.785648    33.892824    155733.93    2051.1768    1406.3732    1818.8762 
   21200    5787.2205    4048.8839    210.68828     5306.243   -1257.3591    -161.9282    792.60406    439.38418   -230.01173    21.002532     126.0122    67.763263    67.763263    33.881631     155579.7    2010.7836     1438.135    1857.3244 
   21300    5792.2295    4042.7059    210.87064    5292.5598   -1249.8539    549.26375     -644.792    531.84067    213.55375   -424.40426   -431.07796    67.735217    67.735217    33.867609    155386.61    1993.9844     1435.965    1862.6103 
   21400    5850.6012    3984.3632    212.99571    5251.3503   -1266.9871   -1020.4819    -669.3936    465.49382    149.10184     790.3991    -238.1502     67.70778     67.70778     33.85389    155197.86    2044.4215    1398.8769    1808.0519 
   21500    5850.4116    3985.7578    212.98881    5236.3045   -1250.5467    485.88559    553.68548   -562.08403    316.52831      -732.91    267.67551    67.676286    67.676286    33.838143    154981.39    2024.5902    1408.6788    1803.0355 
   21600    5823.6176    4011.3021    212.01335    5284.8083   -1273.5062   -277.34255   -113.82072    4.3368127   -99.404345    381.76924    778.60617    67.637048    67.637048    33.818524    154711.98    2067.8986    1422.4396      1794.47 
   21700    5867.4021    3965.9924    213.60736    5263.3604    -1297.368   -282.87242   -566.73875   -692.37077   -732.00474   -163.94557    39.062648    67.590235    67.590235    33.795118    154390.96     2057.382    1384.8194    1821.1589 
   21800    5771.6911     4061.554    210.12292    5324.4892   -1262.9352   -1581.2389    -128.6693    21.641557   -172.21278   -109.08503   -692.31706    67.537234    67.537234    33.768617    154028.05    2058.7045    1419.5783    1846.2064 
   21900     5849.598    3983.8055    212.95919    5242.4524   -1258.6468    1045.7202     434.1324     497.0835    179.37154   -903.71701       95.209    67.483372    67.483372    33.741686    153659.83    2008.5698    1434.2078    1799.6748 
   22000    5775.5298    4059.0524    210.26268    5379.7676   -1320.7152   0.88555039   -925.04289   -647.81726    99.646613    538.05849   -420.09367    67.429431    67.429431    33.714715    153291.64    2077.2568    1434.0679    1868.4429 
   22100    5863.8744    3968.1605    213.47893    5290.4085    -1322.248   -93.696976    193.39804   -1945.7275   -691.09987    201.66684    31.774975    67.370099    67.370099     33.68505    152887.35    2054.5617    1427.8053    1808.0415 
   22200    5836.0332    3995.0613    212.46535    5306.2301   -1311.1688   -121.53632    -91.90649   -403.59893   -169.08807    331.25241    8.5447346    67.308847    67.308847    33.654423    152470.72    2021.9095    1433.1899    1851.1307 
   22300    5823.5859    4005.3359     212.0122    5304.2129   -1298.8769    862.30143    -328.8168     131.5333    887.32795   -577.54747   -202.87339    67.251156    67.251156    33.625578    152079.01    1999.5329    1423.7216    1880.9584 
   22400    5852.5294    3976.3011    213.06591    5302.0616   -1325.7605   -1083.5759   -225.35709    972.57279    -270.3919    969.11915   -383.16953    67.200927    67.200927    33.600463     151738.5    2028.8601    1423.8189    1849.3826 
   22500     5859.867    3970.5341    213.33304    5318.6183   -1348.0842   -244.71407   -467.09502   -629.01786     131.2355   -237.23391    539.15294     67.16416     67.16416     33.58208    151489.58    2048.5016    1435.7587     1834.358 
   22600    5908.0491    3923.3979    215.08714     5259.155    -1335.757    217.25979    205.11989    736.56642    184.15663   -417.05056   -385.53484    67.135171    67.135171    33.567586    151293.51    2036.3682     1398.294    1824.4928 
   22700    5803.4095    4030.2122    211.27766    5351.2072    -1320.995    402.70379    -4.979655   -199.04846    678.77794     -392.584    37.597612    67.107984    67.107984    33.553992    151109.78    2053.6539    1438.3936    1859.1597 
   22800    5875.5497    3957.1191    213.90398    5310.0633   -1352.9442   -1329.5947   -234.42957   -20.757309   -527.33847    326.85129    183.03606      67.0823      67.0823     33.54115    150936.34    2076.2941     1412.974    1820.7951 
   22900    5826.5757    4006.8312    212.12104    5376.0754   -1369.2443    14.673332   -582.44511   -855.84213     373.8293   -803.18618    281.50055    67.054792    67.054792    33.527396    150750.74    2097.4592    1420.8818    1857.7345 
   23000    5818.8481    4014.6853    211.83971    5314.2015   -1299.5162   -226.90794    227.51436    1018.8224   -282.95161      129.312   -1181.8305    67.017653    67.017653    33.508827     150500.4    2049.6333    1430.2727    1834.2954 
   23100    5863.1816    3968.6478    213.45371    5301.0418   -1332.3939    114.00338    19.505937   -287.07224   -109.28242    380.08122    485.85595     66.97645     66.97645    33.488225    150222.98    2074.9519    1437.2736    1788.8162 
   23200    5931.0592    3898.6702    215.92484    5254.3619   -1355.6917   -2.8631169   -1143.7882    -823.7531   -362.87284    368.09964   -30.751259    66.935883    66.935883    33.467941    149950.18    2057.8863     1405.357    1791.1185 
   23300    5843.4201    3988.1671    212.73428    5313.4716   -1325.3046    172.08107    180.21286    -217.9673    33.620362   -52.585721   -389.19739    66.887716    66.887716    33.443858     149626.7    2048.7488    1429.0246    1835.6983 
   23400    5861.7295     3969.579    213.40085    5341.6725   -1372.0934   -482.58628   -799.43514    417.40259   -177.99867     345.2723   -709.70779    66.837607    66.837607    33.418803    149290.67    2078.5069    1434.8393    1828.3263 
   23500    5889.7299    3939.0897    214.42022    5306.9252   -1367.8356    388.92497   -578.73363    -650.9822   -562.19979    788.08028    1192.0917    66.785456    66.785456    33.392728    148941.49    2084.1649    1411.6761    1811.0843 
   23600    5882.0605    3945.9322    214.14101    5344.4146   -1398.4824   -45.216364   -62.218284   -976.77707   -161.58995    316.74148   -460.56595    66.731897    66.731897    33.365948    148583.44    2061.7486    1455.8048    1826.8613 
   23700    5932.8601    3893.9762    215.99041    5303.2231   -1409.2469   -332.89809   -209.39131     389.9934    351.58267   -165.59615    -315.5817    66.669223    66.669223    33.334611    148165.19     2058.157    1415.9781     1829.088 
   23800    5884.4543    3940.8087    214.22816    5353.7086   -1412.8999   -579.03724    175.20683   0.94855611   -331.74067    34.415836    245.40625    66.602924    66.602924    33.301462    147723.61    2067.6901    1423.7339    1862.2846 
[...]
  992700    15968.731    13614.362    581.35413    15066.383   -1452.0203    731.59552    663.94118    878.11203   -606.53457     211.4515    -203.5066    61.083554    61.083554    30.541777     113957.5    6109.2938    4211.9913    4745.0975 
  992800    15894.388    13690.109    578.64762     15096.83   -1406.7211    2039.5093    723.83006    1459.0929   -843.46876   -190.02152   -214.38948    61.043846    61.043846    30.521923     113735.4    6070.2567      4193.53    4833.0436 
  992900     16043.63    13538.052    584.08089    15063.571   -1525.5192    609.47343   -522.03959   -2204.1491   -746.45784   -313.10489    1591.9003    60.995936    60.995936    30.497968    113467.82    6096.3646    4129.9088    4837.2976 
  993000    15938.583    13651.342    580.25659    15107.967   -1456.6252    1279.3471    907.41442   -1868.7467      566.949    158.27325    157.21058    60.938302    60.938302    30.469151    113146.48     6090.521    4202.9465    4814.4999 
  993100    15998.737    13597.182    582.44652    15045.709   -1448.5271     1981.072    2709.6793    2679.8242   -1370.3435    695.12419   -1044.3195    60.880958    60.880958    30.440479    112827.36    6088.1462    4127.3548    4830.2081 
  993200    16049.526    13546.962    584.29553    15087.405   -1540.4424    -397.8726   -359.14505    736.15367     1211.726   -331.15104   -430.14512    60.831716    60.831716    30.415858    112553.81    6068.8244    4214.2545     4804.326 
  993300    16131.846    13464.226    587.29245    15057.205   -1592.9782   -1614.6435   -1059.0635   -766.65199    719.45619   -454.49452     1731.876    60.784243    60.784243    30.392122    112290.51    6140.2075    4189.8693    4727.1277 
  993400    15773.304    13837.123    574.23944    15330.751   -1493.6278   -94.203679    547.56236    120.06027    1428.7806    317.36467   -905.70273     60.73938     60.73938     30.36969    112042.05    6209.2901    4207.2266    4914.2345 
  993500    15861.018    13749.071    577.43277    15231.874   -1482.8034   -298.12337    1212.6198    1240.4476   -620.02266    182.34789   -1062.5393    60.711433    60.711433    30.355717    111887.47    6151.2771    4219.9233    4860.6741 
  993600    15991.047      13619.9    582.16657    15188.885   -1568.9849   -2019.7377   -2153.5009   -1158.3213    1048.9462   -1075.5832    814.50689     60.70061     60.70061    30.350305    111827.64    6182.5354    4251.5967    4754.7532 
  993700    15991.143    13624.782    582.17007    15236.799   -1612.0166   -3019.1954   -1663.2832   -2697.1145    889.84256   -610.09241    1391.3226    60.697649    60.697649    30.348825    111811.28    6258.2836    4203.3594    4775.1555 
  993800    15966.104    13655.649    581.25849    15150.253   -1494.6042    727.42038    1737.2602   -1431.6295   -433.71412    224.53912   -622.51026    60.700595    60.700595    30.350297    111827.56    6277.8306    4114.7526      4757.67 
  993900    15959.867    13668.723    581.03142    15135.188   -1466.4646    2044.3392    995.87268    2392.3775   -1569.5496    407.50026    128.15095    60.715968    60.715968    30.357984    111912.55    6110.5036    4308.7903    4715.8941 
  994000    16012.281    13612.953    582.93962    15172.448   -1559.4949    344.38239   -754.43383   -338.52633    710.44147   -446.08249    84.080842    60.739879    60.739879    30.369939    112044.81    6214.0946    4266.8071    4691.5463 
  994100    15976.957    13650.333    581.65361    15196.281   -1545.9482   -1574.0302    345.80923   -2157.2186    1041.3921    274.14882     663.7927    60.764729    60.764729    30.382364    112182.39    6179.9177    4213.1893    4803.1737 
  994200    16102.244    13524.548    586.21476    15017.774   -1493.2262    1529.2171    1538.1323    672.14079   -407.16124   -126.72181   -1021.8445    60.789543    60.789543    30.394771    112319.88    6071.4769    4225.7087    4720.5886 
  994300    16066.725    13566.289    584.92169    15084.921   -1518.6315   -263.55226   -472.66456    435.93207   -388.47197    2005.9365    1315.2572    60.811388    60.811388    30.405694    112441.01    6219.5877    4104.6134    4760.7197 
  994400    15920.955    13721.761    579.61483     15295.76   -1573.9997   -1287.4579   -1191.6131   -906.17015    317.03694    78.028722     1222.967    60.834372    60.834372    30.417186    112568.55    6267.2868    4225.5721    4802.9014 
  994500    16055.746    13586.908      584.522    15097.681   -1510.7731    559.10385    554.05387    1971.3639    395.03644    726.36443   -126.39187    60.848532    60.848532    30.424266    112647.18    6190.6675    4188.0745    4718.9391 
  994600     15766.01      13887.7    573.97391    15329.822   -1442.1225    473.66669    1519.9583    2160.2188    143.93135   -1450.6196   -1700.5047    60.856825    60.856825    30.428412    112693.24    6213.0228    4353.0578    4763.7416 
  994700    15962.166    13691.118    581.11513    15209.479   -1518.3607   -1242.4676   -2275.2489   -3196.4614    -366.6202    1450.2432    1128.8038    60.870746    60.870746    30.435373     112770.6    6217.2321    4264.5793    4727.6678 
  994800    16045.297    13612.316    584.14158    15121.715   -1509.3988   -708.77804   -1149.1102   -1864.8576   -235.71743    -312.8891   -23.361781    60.879695    60.879695    30.439848    112820.34    6168.4438    4252.4886    4700.7824 
  994900    16099.817    13557.587    586.12642    14959.141   -1401.5541    1963.5543    2257.8768    2204.6928    195.93119   -1233.4559    69.382835    60.884553    60.884553    30.442276    112847.35    6126.6949    4129.9224    4702.5239 
  995000    16042.582    13617.142    584.04273    15101.511   -1484.3689   -819.15125    971.10151   -590.31876    729.47847   -645.99096    13.465755    60.892053    60.892053    30.446026    112889.06    6181.2048    4157.2286    4763.0776 
  995100    15969.083    13696.321    581.36693    15194.912   -1498.5914    -936.2952   -676.09733   -877.15997   -542.06604    957.46937    141.44065    60.899033    60.899033    30.449516    112927.88     6207.333    4186.0093    4801.5699 
  995200     15973.83    13692.969    581.53976    15166.116   -1473.1465   -829.27415    884.13336    237.33649   -346.55874    387.35221    39.244173     60.90327     60.90327    30.451635    112951.46    6099.1904     4181.601    4885.3242 
  995300    15986.433    13684.209    581.99858    15147.495   -1463.2867    1310.7479    1447.8031    1366.5397    191.91972    497.35457   -461.38765    60.906226    60.906226    30.453113     112967.9     6009.662    4329.6162    4808.2171 
  995400    16045.855    13624.988    584.16189    15130.106   -1505.1177    -1293.508   -767.91251   -2152.3482     475.9916    -584.2329     917.2269    60.906508    60.906508    30.453254    112969.47    6145.3779    4239.1612    4745.5665 
  995500    16094.037     13581.27    585.91598    15082.992   -1501.7227   -1341.9485   -799.91112   -174.49672   -314.39821    1414.9765    598.02906    60.901377    60.901377    30.450688    112940.92    6164.7265    4178.8005    4739.4653 
  995600    15945.747    13735.378    580.51739    15155.879   -1420.5011    1352.6679    323.65724    3068.9311    747.33482   -390.98348   -191.71839    60.892522    60.892522    30.446261    112891.67    6066.0079    4256.7909    4833.0802 
  995700    16029.306    13658.565    583.55941    15167.307   -1508.7416     440.1409   -683.90341   -26.777298   -115.38541    982.90795    -841.4857    60.888343    60.888343    30.444172    112868.43    6149.2219    4245.6333    4772.4517 
  995800    16004.558    13684.359    582.65844    15168.208   -1483.8491   -1508.7132   -1186.3573   -2676.1164    478.99577   -578.61228   -390.49159    60.889544    60.889544    30.444772     112875.1     6169.413    4243.1969    4755.5984 
  995900    15995.176    13698.595    582.31689    15163.869   -1465.2749    789.02723   -723.08699    1048.2001   -573.64756    2307.9152    11.352244    60.896156    60.896156    30.448078    112911.88    6055.4796    4344.1323    4764.2577 
  996000    16079.943    13610.263    585.40289    15025.017   -1414.7547    1903.0997   -746.99619    1847.3589   -1265.6325   -820.65663     460.8892    60.904178    60.904178    30.452089    112956.51    5934.3301    4318.3685    4772.3188 
  996100     16058.83    13640.846    584.63424    15155.031   -1514.1848   -1207.0074    -499.9648   -1711.3283    403.31056    7.4493448   -456.82345    60.916362    60.916362    30.458181    113024.32    6203.4227    4220.5916    4731.0162 
  996200    16134.235    13567.639    587.37944     15074.49   -1506.8508     254.8004   -308.68075   -1467.8728    527.46928   -1913.8867    496.68064    60.920262    60.920262    30.460131    113046.03    6150.4087    4219.6923    4704.3885 
  996300    16036.594    13669.309    583.82476    15048.593   -1379.2835    1519.4493    1769.1848    1873.3715   -318.15277     1259.642   -699.79288    60.907446    60.907446    30.453723    112974.69    6054.6853      4271.35    4722.5575 
  996400    16058.981    13646.611    584.63974    15075.131   -1428.5193   -1317.3911    54.801772    1932.6677   -116.10934     -1009.25    488.11198    60.894516    60.894516    30.447258    112902.76    6050.9776    4274.0656    4750.0876 
  996500    15994.204     13718.36    582.28148    15194.102   -1475.7423   -1927.2436   -927.13118   -1651.5757    33.488136    872.00415    465.20586    60.881686    60.881686    30.440843    112831.41    6240.9115    4210.4064    4742.7839 
  996600    15936.024    13785.534     580.1634    15162.638   -1377.1041    2679.3391    130.09074    230.99332   -233.21755   -1131.5318    1247.6528    60.866713    60.866713    30.433357    112748.18    6158.9428    4249.3891    4754.3058 
  996700    16055.685    13658.488    584.51978    15069.349    -1410.861    1821.2692    930.19482    1452.5246   -988.59439   -226.32388   -871.32144    60.857048    60.857048    30.428524    112694.48    6003.9278    4291.9943    4773.4272 
  996800    16130.328    13589.524     587.2372    15052.853   -1463.3295   -442.41305   -947.90262     628.3856    1125.4814   -611.17884    -266.9727    60.846636    60.846636    30.423318    112636.65    6116.6662    4182.8517     4753.335 
  996900    16245.593    13477.889     591.4335    15013.288   -1535.3986   -3034.4717   -463.12305   -936.79621    829.28957      428.811   -278.94561    60.834769    60.834769    30.417384    112570.76    6100.0079    4161.6048    4751.6754 
  997000    16199.115    13524.317    589.74144    14946.739   -1422.4223    2557.1573    195.86014    2924.8197   -347.19034   -120.33909   -29.675529    60.808167    60.808167    30.404083    112423.15    5902.9241    4201.5394    4842.2757 
  997100    16100.683    13632.798    586.15794    15148.683   -1515.8847   -1008.6681    432.52479    2069.8675    508.54288    572.84074   -1702.4247     60.78323     60.78323    30.391615    112284.89    6105.2784    4223.6808    4819.7234 
  997200    15930.357     13809.98    579.95711    15331.145   -1521.1647   -1360.9682   -2647.9884   -2458.5653    53.544215   -534.65781    1155.5333    60.752167    60.752167    30.376084    112112.83     6171.888    4265.3124    4893.9444 
  997300    16124.985    13608.223    587.04267    15113.819   -1505.5964   -57.355129    1386.1439   -1941.3487    394.30884    1320.4808   -94.941953    60.714989    60.714989    30.357495    111907.13    6153.7681    4135.2634    4824.7879 
  997400    16060.895    13684.413    584.70944    15184.469   -1500.0559    1934.0236    1267.4652    229.97943   -314.08409    124.72138    1941.2979    60.674722    60.674722    30.337361    111684.63    6086.7458    4187.3004    4910.4227 
  997500    16135.298    13609.867    587.41814    15141.322   -1531.4548    -2506.082    1286.6627   -234.94546    -131.3852    618.49613   -855.13253    60.637814    60.637814    30.318907    111480.94    6088.3614     4220.426    4832.5346 
  997600    16173.112    13574.854    588.79478    15092.925   -1518.0714    132.44543    991.97767    1702.5252   -123.70331    -272.3517    4.1850968    60.605557    60.605557    30.302779    111303.12     6058.375    4257.0878    4777.4624 
  997700    16039.532    13719.894    583.93171     15199.42    -1479.526   -43.609707    1872.6226    1187.0263     291.4844   -118.84145    361.81903    60.586522    60.586522    30.293261    111198.28    6145.7189    4217.5514    4836.1498 
  997800    15978.432    13781.847    581.70729    15328.614   -1546.7669   -1173.5107    176.90959   -1357.4336    362.22823   -489.51525    2252.7059    60.572145    60.572145    30.286072    111119.14    6169.0603    4242.0256    4917.5284 
  997900    16124.835    13632.797    587.03724    15145.879   -1513.0814   -1076.3295     542.8603   -579.05311   -654.78751   -147.01384   -313.23333    60.559914    60.559914    30.279957    111051.84    5999.5933    4238.0188    4908.2664 
  998000    16083.665    13680.426    585.53839    15142.103   -1461.6769    1692.1134   -244.28887    2307.3984    519.35033   -387.39141     864.9203    60.560479    60.560479     30.28024    111054.95     6130.216    4164.9012    4846.9857 
  998100    15896.563    13876.522    578.72679    15420.424   -1543.9028   -929.69642   -191.18313   -106.05547    567.48194    244.77007   -1339.7252    60.576325    60.576325    30.288162    111142.14    6234.3489    4312.4437    4873.6317 
  998200    16054.718    13716.175    584.48456    15237.531   -1521.3556   -247.36862   -398.77094     193.4599    1024.4596   -908.77312    131.31285    60.601481    60.601481     30.30074    111280.67    6104.6491    4248.5232    4884.3587 
  998300    16046.707    13728.719    584.19292    15251.991   -1523.2725    596.58658   -144.18689   -1277.2974    257.66444   -606.19459   -92.506108    60.635487    60.635487    30.317744    111468.11    6239.0485    4165.0611    4847.8815 
  998400    16144.845    13634.211    587.76569    15126.526    -1492.315    1697.0908   -1026.7813    991.71429    850.78063    -1054.458    1532.0686    60.678113    60.678113    30.339057    111703.35    6031.7108    4311.2717    4783.5436 
  998500    16130.715     13647.05    587.25129    15190.957   -1543.9068   -1637.6097   -142.07552   -1627.6011   -955.03239    263.83354   -171.97063    60.725883    60.725883    30.362942    111967.38    6116.1671    4202.9566    4871.8331 
  998600    16004.488    13781.967    582.65591    15261.097   -1479.1306    59.959111   -249.38452   -388.71625   -388.01778   -861.10325   -304.09969    60.768021    60.768021     30.38401    112200.63    6194.1843    4178.6718    4888.2413 
  998700    16178.116     13606.09    588.97696    15124.042   -1517.9518  -0.21261733   -600.77622    30.362657   -654.14249   -206.20058   -1160.3273    60.808539    60.808539     30.40427    112425.21    6085.5523     4186.271    4852.2185 
  998800    15979.838    13811.482    581.75847    15276.937   -1465.4549    3.7034662   -663.55683    501.77694    1590.6103   -26.455896    437.82858    60.846346    60.846346    30.423173    112635.04    6150.7267    4152.7217    4973.4882 
  998900    15931.996    13866.397    580.01677    15363.345    -1496.948    588.98793   -90.073793   -1059.4471   -835.74545    288.64218   -305.93646    60.879489    60.879489    30.439744    112819.19     6241.573    4144.4206    4977.3509 
  999000    15914.949    13896.523    579.39616    15354.596   -1458.0722    1829.7277   -654.39973    -1402.664    -1245.794   -1540.6436    898.39204    60.905093    60.905093    30.452546     112961.6    6264.7247    4276.2983    4813.5727 
  999100     16035.98    13770.647    583.80238    15284.178   -1513.5312     -2052.62   -1095.9334   -835.28692   -434.73881    1033.6932    75.749856    60.920544    60.920544    30.460272    113047.59    6212.4846    4130.0433      4941.65 
  999200    16076.889    13732.823    585.29169    15215.147    -1482.324   -1132.1828   -1584.2323    965.96763    1574.2126      1022.39   -578.61677    60.920788    60.920788    30.460394    113048.95    6161.5021    4263.1967    4790.4478 
  999300    15916.667    13896.074     579.4587    15293.459   -1397.3844   -1048.7169     394.3275    1821.9842   -750.95952    800.05352   -465.76533    60.907712    60.907712    30.453856    112976.17    6133.6824    4237.3078    4922.4683 
  999400    16098.334    13717.535    586.07242    15185.408    -1467.873    -964.5933   -281.14927      42.9489    407.94154   -123.56997    -67.11876    60.892097    60.892097    30.446048     112889.3    6089.6545    4196.8584    4898.8954 
  999500    16051.297    13765.188    584.36002    15285.936   -1520.7487   -1137.4603   -683.19806   -1282.3484   -238.34498    1071.4292    383.76703    60.875827    60.875827    30.437913    112798.84    6027.2946    4284.3627    4974.2791 
  999600    16148.806    13670.209    587.90992    15156.101   -1485.8918    1153.6754    508.47981   -2037.4653   -416.77183   -1024.9676    817.50435    60.845824    60.845824    30.422912    112632.14    6111.3521    4280.5324    4764.2161 
  999700     16075.54    13752.346    585.24261    15257.384   -1505.0384    1535.2177   -475.85641    783.12944   -1238.9002    -204.3785    246.94362    60.808117    60.808117    30.404059    112422.87    6071.8167    4276.4764     4909.091 
  999800    16105.341    13725.564    586.32754     15167.11   -1441.5464    1101.1953    725.43681    640.88823   -133.96102    156.62078   -478.48925    60.765191    60.765191    30.382596    112184.95     6104.421    4244.1501    4818.5393 
  999900    16078.586    13751.889    585.35351    15273.027   -1521.1383    856.19943     224.8484   -1658.5504   -438.50801    1449.5503   -389.31088    60.719552    60.719552    30.359776    111932.36     6188.142    4244.2093    4840.6759 
 1000000    16366.571    13456.215    595.83781     15025.53   -1569.3141   -117.39054   -777.88165   -1917.1571   -970.51688   -288.17098   -223.18247      60.6716      60.6716      30.3358    111667.38    5977.0931    4184.8532    4863.5833 
Loop time of 55996.2 on 20 procs for 1000000 steps with 9216 atoms

Performance: 1.543 ns/day, 15.554 hours/ns, 17.858 timesteps/s
100.0% CPU use with 1 MPI tasks x 20 OpenMP threads

MPI task timing breakdown:
Section |  min time  |  avg time  |  max time  |%varavg| %total
---------------------------------------------------------------
Pair    | 48921      | 48921      | 48921      |   0.0 | 87.37
Bond    | 3087.6     | 3087.6     | 3087.6     |   0.0 |  5.51
Neigh   | 3470.3     | 3470.3     | 3470.3     |   0.0 |  6.20
Comm    | 151.97     | 151.97     | 151.97     |   0.0 |  0.27
Output  | 7.476      | 7.476      | 7.476      |   0.0 |  0.01
Modify  | 295.37     | 295.37     | 295.37     |   0.0 |  0.53
Other   |            | 62         |            |       |  0.11

Nlocal:    9216 ave 9216 max 9216 min
Histogram: 1 0 0 0 0 0 0 0 0 0
Nghost:    28798 ave 28798 max 28798 min
Histogram: 1 0 0 0 0 0 0 0 0 0
Neighs:    4.33844e+06 ave 4.33844e+06 max 4.33844e+06 min
Histogram: 1 0 0 0 0 0 0 0 0 0

Total # of neighbors = 4338436
Ave neighs/atom = 470.75
Ave special neighs/atom = 10.8333
Neighbor list builds = 28421
Dangerous builds = 10

# write final restart file
write_restart resume_${sim_name_melt}_md_run${run_n_melt}
write_restart resume_crystal_melting_md_run${run_n_melt}
write_restart resume_crystal_melting_md_run1
#############################################





### Simulation 2 -Quenching #################

# write snapshot
dump coords all custom ${xyz_step} ${snapshot_folder}/snapshotMelt*.dat id mol type x y z ix iy iz
dump coords all custom 5000 ${snapshot_folder}/snapshotMelt*.dat id mol type x y z ix iy iz
dump coords all custom 5000 snapshots/snapshotMelt*.dat id mol type x y z ix iy iz
ERROR: Reuse of dump ID (src/output.cpp:555)
Last command: dump coords all custom ${xyz_step} ${snapshot_folder}/snapshotMelt*.dat id mol type x y z ix iy iz
