36
i = 0, time = 0.000, E = 354.6341779163
CA          52.3809000000       46.7448000000       39.7921000000
CA          52.2969000000       47.9237000000       39.0196000000
CB          53.1046000000       48.0453000000       37.8981000000
CK          53.0089000000       49.1800000000       37.1348000000
CT          53.7642000000       49.2504000000       35.9334000000
CM          53.6693000000       50.4082000000       35.1516000000
CM          52.7563000000       51.4355000000       35.4877000000
CT          52.0501000000       51.3810000000       36.7065000000
CK          52.2076000000       50.3272000000       37.5166000000
CB          51.4319000000       50.1584000000       38.6710000000
CA          51.6702000000       46.7003000000       41.0372000000
HA          53.0073000000       45.8486000000       39.5528000000
HA          53.7578000000       47.1841000000       37.6933000000
HA          54.2267000000       48.3341000000       35.5599000000
HA          54.2047000000       50.3947000000       34.2049000000
HA          52.6634000000       52.2000000000       34.6441000000
HA          51.4045000000       52.2093000000       37.0366000000
HA          50.7061000000       50.9062000000       38.9586000000
CA          50.7424000000       48.8830000000       40.6276000000
CA          50.8350000000       47.7254000000       41.4286000000
CB          50.0862000000       47.6387000000       42.6430000000
CK          50.2295000000       46.4603000000       43.4469000000
CT          49.4483000000       46.3239000000       44.6072000000
CM          49.5874000000       45.1705000000       45.3613000000
CM          50.4852000000       44.1414000000       45.0313000000
CT          51.3227000000       44.3126000000       43.9285000000
CK          51.1448000000       45.4525000000       43.1435000000
CB          51.7598000000       45.5629000000       41.9090000000
CA          51.4775000000       48.9751000000       39.4496000000
HA          50.0619000000       49.6171000000       40.8768000000
HA          49.4868000000       48.5183000000       42.9696000000
HA          48.7580000000       47.1169000000       44.8722000000
HA          48.9219000000       45.1378000000       46.2361000000
HA          50.6773000000       43.2707000000       45.5489000000
HA          52.0345000000       43.4297000000       43.6850000000
HA          52.3187000000       44.6841000000       41.5696000000
