ITEM: TIMESTEP
15000
ITEM: NUMBER OF ATOMS
36864
ITEM: BOX BOUNDS xy xz yz pp pp pp
-1.4573366857295520e+00 6.1861463507472472e+01 5.5225504714569587e+00
1.2906956271741228e+00 8.7804850861747298e+01 4.7535763502863322e+00
-6.2691553259668564e-01 1.1362208153259830e+02 2.7163077488921520e+01
ITEM: ATOMS id mol type x y z ix iy iz 
1 1 1 8.65063 32.2303 112.639 0 0 -1 
2 1 1 7.48747 32.1579 113.483 0 0 -1 
3 1 1 2.87969 4.29891 0.411007 0 0 0 
4 1 1 1.89905 4.32226 1.35147 0 0 0 
5 1 1 2.09142 3.82787 2.70638 0 0 0 
6 1 1 1.04041 3.84875 3.62393 0 0 0 
7 1 1 -0.24885 4.39683 3.23785 0 0 0 
8 1 1 -0.370917 4.92175 1.96063 0 0 0 
9 1 1 0.652539 4.93935 0.971613 0 0 0 
10 1 1 0.455356 5.49627 -0.336198 0 0 0 
11 1 1 8.58099 32.7933 111.311 0 0 -1 
12 1 2 9.54797 31.7 112.934 0 0 -1 
13 1 2 3.83196 3.81635 0.516261 0 0 0 
14 1 2 3.10754 3.45184 3.00635 0 0 0 
15 1 2 1.13246 3.56263 4.71267 0 0 0 
16 1 2 -0.960356 4.51194 4.02234 0 0 0 
17 1 2 51.7437 5.43503 1.59795 -1 0 0 
18 1 2 -0.472673 5.92865 -0.620689 0 0 0 
19 1 1 6.15546 33.3089 111.816 0 0 -1 
20 1 1 7.29828 33.3956 110.977 0 0 -1 
21 1 1 7.13602 33.9355 109.691 0 0 -1 
22 1 1 8.22329 33.8831 108.77 0 0 -1 
23 1 1 7.95612 34.3582 107.527 0 0 -1 
24 1 1 8.96121 34.3943 106.509 0 0 -1 
25 1 1 10.1889 33.6855 106.733 0 0 -1 
26 1 1 10.3809 33.1704 108.079 0 0 -1 
27 1 1 9.43312 33.2546 109.085 0 0 -1 
28 1 1 9.61609 32.7306 110.374 0 0 -1 
29 1 1 6.25346 32.6572 113.015 0 0 -1 
30 1 2 5.21335 33.7469 111.376 0 0 -1 
31 1 2 6.17818 34.29 109.444 0 0 -1 
32 1 2 7.07461 34.9348 107.216 0 0 -1 
33 1 2 8.79353 34.9681 105.606 0 0 -1 
34 1 2 11.0078 33.5097 106.049 0 0 -1 
35 1 2 11.3483 32.6369 108.274 0 0 -1 
36 1 2 10.5472 32.1419 110.671 0 0 -1 
37 2 1 55.3719 28.6366 112.06 -1 0 -1 
38 2 1 61.0386 87.7548 113.449 -1 -1 -1 
39 2 1 55.3189 59.8967 -0.0841172 -1 -1 0 
40 2 1 55.4325 59.7584 1.28542 -1 -1 0 
41 2 1 54.3343 59.2838 2.04504 -1 -1 0 
42 2 1 54.3954 59.0928 3.41348 -1 -1 0 
43 2 1 55.5189 59.4811 4.10451 -1 -1 0 
44 2 1 56.6512 59.9678 3.36712 -1 -1 0 
45 2 1 56.608 60.118 1.97354 -1 -1 0 
46 2 1 4.6356 60.6607 1.2178 0 -1 0 
47 2 1 3.41886 29.1571 111.309 0 0 -1 
48 2 2 54.4182 28.3953 111.599 -1 0 -1 
49 2 2 54.5174 59.4803 -0.68032 -1 -1 0 
50 2 2 53.3684 59.1429 1.46272 -1 -1 0 
51 2 2 53.5537 58.8206 3.96284 -1 -1 0 
52 2 2 55.5872 59.5528 5.17358 -1 -1 0 
53 2 2 4.46762 60.2434 3.91854 0 -1 0 
54 2 2 5.46008 61.04 1.76753 0 -1 0 
55 2 1 4.78478 29.2063 113.262 0 0 -1 
56 2 1 4.65262 29.467 111.893 0 0 -1 
57 2 1 5.72494 29.8833 111.101 0 0 -1 
58 2 1 5.58244 30.0043 109.689 0 0 -1 
59 2 1 6.64487 30.406 108.897 0 0 -1 
60 2 1 6.55277 30.4976 107.509 0 0 -1 
61 2 1 5.33647 30.3248 106.895 0 0 -1 
62 2 1 4.22958 29.8834 107.707 0 0 -1 
63 2 1 4.33709 29.7462 109.087 0 0 -1 
64 2 1 56.2926 29.3531 109.897 -1 0 -1 
65 2 1 -1.04021 1.58421 -0.19572 0 0 0 
66 2 2 1.03633 2.35166 -0.570838 0 0 0 
67 2 2 6.71271 30.044 111.614 0 0 -1 
68 2 2 7.57594 30.5913 109.397 0 0 -1 
69 2 2 7.43761 30.901 106.939 0 0 -1 
70 2 2 5.19837 30.4865 105.848 0 0 -1 
71 2 2 3.25057 29.6363 107.253 0 0 -1 
72 2 2 55.322 29.2049 109.451 -1 0 -1 
73 3 1 4.21529 7.95207 13.3997 0 0 0 
74 3 1 3.22232 7.98246 14.3925 0 0 0 
75 3 1 3.40132 7.3865 15.6301 0 0 0 
76 3 1 2.43337 7.51457 16.6296 0 0 0 
77 3 1 2.69844 7.04397 17.913 0 0 0 
78 3 1 1.65363 7.12381 18.899 0 0 0 
79 3 1 0.365123 7.6293 18.6204 0 0 0 
80 3 1 0.105143 8.05047 17.3095 0 0 0 
81 3 1 1.12804 8.07677 16.3135 0 0 0 
82 3 1 0.928151 8.694 15.0642 0 0 0 
83 3 1 4.01905 8.65937 12.1209 0 0 0 
84 3 2 5.16924 7.39367 13.5018 0 0 0 
85 3 2 4.28897 6.76949 15.7131 0 0 0 
86 3 2 3.67046 6.63332 18.1691 0 0 0 
87 3 2 2.03461 6.83672 19.8755 0 0 0 
88 3 2 -0.393038 7.63908 19.3533 0 0 0 
89 3 2 52.2739 8.55738 17.0162 -1 0 0 
90 3 2 -0.0446041 9.10338 14.8809 0 0 0 
91 3 1 1.83654 9.33688 12.886 0 0 0 
92 3 1 2.80643 9.28011 11.8415 0 0 0 
93 3 1 2.55047 9.80382 10.5593 0 0 0 
94 3 1 3.47616 9.79382 9.56246 0 0 0 
95 3 1 3.2 10.3062 8.2703 0 0 0 
96 3 1 4.19717 10.2656 7.28121 0 0 0 
97 3 1 5.41566 9.6068 7.56151 0 0 0 
98 3 1 5.67992 9.09744 8.86151 0 0 0 
99 3 1 4.71723 9.16691 9.84342 0 0 0 
100 3 1 5.01164 8.64217 11.184 0 0 0 
101 3 1 2.01222 8.67557 14.0911 0 0 0 
102 3 2 0.857637 9.72578 12.6566 0 0 0 
103 3 2 1.60089 10.2213 10.2693 0 0 0 
104 3 2 2.25755 10.7836 7.94717 0 0 0 
105 3 2 4.06578 10.6497 6.31182 0 0 0 
106 3 2 6.19655 9.49279 6.78208 0 0 0 
107 3 2 6.65887 8.8394 9.01804 0 0 0 
108 3 2 5.97091 8.17054 11.3089 0 0 0 
109 4 1 51.3872 4.61256 11.8229 -1 0 0 
110 4 1 57.1856 63.8339 13.2354 -1 -1 0 
111 4 1 56.1802 63.2771 14.1034 -1 -1 0 
112 4 1 56.4061 63.1117 15.3977 -1 -1 0 
113 4 1 55.4112 62.6751 16.2319 -1 -1 0 
114 4 1 55.4691 62.8461 17.6046 -1 -1 0 
115 4 1 56.7114 63.3102 18.125 -1 -1 0 
116 4 1 4.7828 63.5705 17.3139 0 -1 0 
117 4 1 57.5824 63.5995 15.9299 -1 -1 0 
118 4 1 5.60568 64.0442 15.1309 0 -1 0 
119 4 1 -0.666154 5.171 11.0161 0 0 0 
120 4 2 50.35 4.38765 11.4855 -1 0 0 
121 4 2 55.2027 62.9914 13.6722 -1 -1 0 
122 4 2 54.4959 62.2475 15.7816 -1 -1 0 
123 4 2 54.6038 62.5544 18.2561 -1 -1 0 
124 4 2 56.9126 63.3933 19.1625 -1 -1 0 
125 4 2 5.67026 64.0085 17.804 0 -1 0 
126 4 2 6.50282 64.3587 15.6074 0 -1 0 
127 4 1 0.874543 5.40256 12.9943 0 0 0 
128 4 1 0.625049 5.45787 11.573 0 0 0 
129 4 1 1.66226 5.95203 10.7766 0 0 0 
130 4 1 1.45899 6.0475 9.41621 0 0 0 
131 4 1 2.55452 6.4578 8.62308 0 0 0 
132 4 1 2.34078 6.65137 7.23508 0 0 0 
133 4 1 1.07865 6.32839 6.65419 0 0 0 
134 4 1 -0.0135881 5.96417 7.42268 0 0 0 
135 4 1 0.239145 5.79227 8.80138 0 0 0 
136 4 1 -0.837998 5.39153 9.67225 0 0 0 
137 4 1 -0.117593 4.80526 13.7651 0 0 0 
138 4 2 1.7644 5.73014 13.479 0 0 0 
139 4 2 2.54094 6.25735 11.2115 0 0 0 
140 4 2 3.54069 6.66418 9.03491 0 0 0 
141 4 2 3.12814 6.98854 6.54304 0 0 0 
142 4 2 0.925869 6.40485 5.56078 0 0 0 
143 4 2 52.1141 5.75238 6.86988 -1 0 0 
144 4 2 51.3059 5.06871 9.12671 -1 0 0 
145 5 1 4.77778 11.7361 28.3333 0 0 0 
146 5 1 3.65634 11.7275 29.1801 0 0 0 
147 5 1 3.7914 11.2667 30.4699 0 0 0 
148 5 1 2.71794 11.1898 31.3443 0 0 0 
149 5 1 2.86933 10.6633 32.6488 0 0 0 
150 5 1 1.76014 10.7712 33.5091 0 0 0 
151 5 1 0.464133 11.1042 33.0338 0 0 0 
152 5 1 0.348001 11.7197 31.801 0 0 0 
153 5 1 1.51723 11.7889 30.9605 0 0 0 
154 5 1 1.40471 12.3964 29.6832 0 0 0 
155 5 1 4.63844 12.1304 27.0034 0 0 0 
156 5 2 5.77272 11.443 28.7012 0 0 0 
157 5 2 4.74173 10.8366 30.7929 0 0 0 
158 5 2 3.79579 10.2257 33.0369 0 0 0 
159 5 2 1.81235 10.3467 34.4863 0 0 0 
160 5 2 52.663 11.1407 33.7419 -1 0 0 
161 5 2 52.3942 11.9358 31.4184 -1 0 0 
162 5 2 0.548763 13.0023 29.3724 0 0 0 
163 5 1 2.30975 12.7807 27.4699 0 0 0 
164 5 1 3.39589 12.6135 26.5805 0 0 0 
165 5 1 3.21541 12.9947 25.2381 0 0 0 
166 5 1 4.28155 12.9423 24.3046 0 0 0 
167 5 1 4.11165 13.3994 23.0075 0 0 0 
168 5 1 5.18928 13.2879 22.1014 0 0 0 
169 5 1 6.43599 12.8469 22.5526 0 0 0 
170 5 1 6.59994 12.3773 23.8366 0 0 0 
171 5 1 5.52341 12.4775 24.7734 0 0 0 
172 5 1 5.68997 12.0852 26.0985 0 0 0 
173 5 1 2.44991 12.3099 28.7676 0 0 0 
174 5 2 1.3922 13.2032 27.1322 0 0 0 
175 5 2 2.18645 13.3481 25.0447 0 0 0 
176 5 2 3.07834 13.6772 22.7989 0 0 0 
177 5 2 5.05577 13.4704 21.0459 0 0 0 
178 5 2 7.20772 12.7455 21.8369 0 0 0 
179 5 2 7.62894 12.0999 24.0745 0 0 0 
180 5 2 6.68399 11.6396 26.4096 0 0 0 
181 6 1 51.798 7.88557 26.6577 -1 0 0 
182 6 1 57.5335 67.145 28.0155 -1 -1 0 
183 6 1 56.5215 66.6446 28.8303 -1 -1 0 
184 6 1 56.8133 66.4522 30.2257 -1 -1 0 
185 6 1 55.8689 65.8079 31.0136 -1 -1 0 
186 6 1 56.03 65.7561 32.4383 -1 -1 0 
187 6 1 57.1924 66.3579 33.0069 -1 -1 0 
188 6 1 58.1706 66.9348 32.1598 -1 -1 0 
189 6 1 57.9588 67.0054 30.7939 -1 -1 0 
190 6 1 5.75435 67.7193 30.0222 0 -1 0 
191 6 1 -0.268708 8.52196 25.8565 0 0 0 
192 6 2 56.4103 67.0473 26.1263 -1 -1 0 
193 6 2 55.6543 66.1544 28.4028 -1 -1 0 
194 6 2 55.0433 65.3402 30.4919 -1 -1 0 
195 6 2 55.2995 65.2533 33.0172 -1 -1 0 
196 6 2 57.3336 66.3398 34.1533 -1 -1 0 
197 6 2 6.00175 67.2863 32.622 0 -1 0 
198 6 2 1.05842 8.90862 30.4981 0 0 0 
199 6 1 1.03588 9.05938 27.8486 0 0 0 
200 6 1 0.908946 9.04258 26.4587 0 0 0 
201 6 1 1.96017 9.49422 25.6406 0 0 0 
202 6 1 1.80577 9.55865 24.2102 0 0 0 
203 6 1 2.81346 10.028 23.3858 0 0 0 
204 6 1 2.66927 10.0405 21.9797 0 0 0 
205 6 1 1.49712 9.50641 21.3842 0 0 0 
206 6 1 0.429318 9.11475 22.2309 0 0 0 
207 6 1 0.616097 9.12302 23.6305 0 0 0 
208 6 1 52.6824 8.54465 24.4493 -1 0 0 
209 6 1 0.10319 8.34376 28.6259 0 0 0 
210 6 2 1.95575 9.50772 28.3154 0 0 0 
211 6 2 2.80507 9.88683 26.1889 0 0 0 
212 6 2 3.75834 10.2894 23.8644 0 0 0 
213 6 2 3.54788 10.3087 21.4244 0 0 0 
214 6 2 1.45075 9.32074 20.3179 0 0 0 
215 6 2 52.5787 8.68347 21.8013 -1 0 0 
216 6 2 51.7624 8.20029 24.0301 -1 0 0 
217 7 1 5.35666 14.7236 42.4603 0 0 0 
218 7 1 4.32109 14.8249 43.45 0 0 0 
219 7 1 4.5066 14.2697 44.7253 0 0 0 
220 7 1 3.4509 14.3685 45.6403 0 0 0 
221 7 1 3.52762 13.7888 46.9831 0 0 0 
222 7 1 2.42409 13.7991 47.8844 0 0 0 
223 7 1 1.22949 14.4527 47.5048 0 0 0 
224 7 1 1.11567 15.0743 46.2338 0 0 0 
225 7 1 2.21517 15.0421 45.3332 0 0 0 
226 7 1 2.10191 15.693 44.109 0 0 0 
227 7 1 5.19953 15.2672 41.1962 0 0 0 
228 7 2 6.27033 14.2547 42.7731 0 0 0 
229 7 2 5.3335 13.6303 45.0022 0 0 0 
230 7 2 4.46144 13.3644 47.3276 0 0 0 
231 7 2 2.43153 13.4145 48.9321 0 0 0 
232 7 2 53.4109 14.4549 48.2354 -1 0 0 
233 7 2 53.2504 15.6521 45.9497 -1 0 0 
234 7 2 1.19585 16.1662 43.8668 0 0 0 
235 7 1 2.95284 16.0022 41.8326 0 0 0 
236 7 1 3.96604 15.8373 40.9278 0 0 0 
237 7 1 3.84335 16.4215 39.6495 0 0 0 
238 7 1 4.88868 16.3442 38.6834 0 0 0 
239 7 1 4.52134 16.7539 37.4141 0 0 0 
240 7 1 5.5502 16.7459 36.4172 0 0 0 
241 7 1 6.80658 16.1909 36.7639 0 0 0 
242 7 1 7.05807 15.6475 38.0561 0 0 0 
243 7 1 6.09473 15.7548 39.0303 0 0 0 
244 7 1 6.3109 15.2421 40.3602 0 0 0 
245 7 1 3.10929 15.5405 43.1742 0 0 0 
246 7 2 2.08686 16.5167 41.5415 0 0 0 
247 7 2 2.9485 17.0131 39.4058 0 0 0 
248 7 2 3.58226 17.1936 37.2324 0 0 0 
249 7 2 5.3316 17.2282 35.46 0 0 0 
250 7 2 7.63422 16.2076 36.148 0 0 0 
251 7 2 8.07378 15.3436 38.3063 0 0 0 
252 7 2 7.18487 14.7955 40.7682 0 0 0 
253 8 1 57.6228 70.7354 41.6613 -1 -1 0 
254 8 1 57.781 70.6288 43.0632 -1 -1 0 
255 8 1 56.7072 70.3298 43.869 -1 -1 0 
256 8 1 56.876 70.0852 45.2706 -1 -1 0 
257 8 1 55.7611 69.7953 46.0191 -1 -1 0 
258 8 1 55.9087 69.5192 47.4131 -1 -1 0 
259 8 1 57.1695 69.7367 48.0136 -1 -1 0 
260 8 1 58.2273 70.3228 47.3302 -1 -1 0 
261 8 1 58.0808 70.3371 45.8966 -1 -1 0 
262 8 1 6.05556 70.9252 45.1145 0 -1 0 
263 8 1 53.2207 11.7738 40.8954 -1 0 0 
264 8 2 56.6619 70.5789 41.1962 -1 -1 0 
265 8 2 55.7478 70.0175 43.3401 -1 -1 0 
266 8 2 54.7977 69.6079 45.4873 -1 -1 0 
267 8 2 55.0202 69.1822 48.0141 -1 -1 0 
268 8 2 57.3127 69.6649 49.0757 -1 -1 0 
269 8 2 6.11709 70.6937 47.7905 0 -1 0 
270 8 2 6.9736 71.2451 45.5606 0 -1 0 
271 8 1 1.47189 12.1526 42.9521 0 0 0 
272 8 1 1.40767 12.1638 41.5101 0 0 0 
273 8 1 2.45697 12.5679 40.7162 0 0 0 
274 8 1 2.28984 12.7498 39.3603 0 0 0 
275 8 1 3.37408 13.191 38.6136 0 0 0 
276 8 1 3.24821 13.5052 37.3137 0 0 0 
277 8 1 2.02 13.2855 36.7184 0 0 0 
278 8 1 0.981648 12.6563 37.3873 0 0 0 
279 8 1 1.08651 12.4313 38.7585 0 0 0 
280 8 1 53.0681 11.8679 39.5338 -1 0 0 
281 8 1 5.93911 71.0119 43.7116 0 -1 0 
282 8 2 2.35049 12.4776 43.5124 0 0 0 
283 8 2 3.42388 12.7816 41.1782 0 0 0 
284 8 2 4.37373 13.3436 39.0632 0 0 0 
285 8 2 4.15073 13.8247 36.71 0 0 0 
286 8 2 1.98547 13.3808 35.6179 0 0 0 
287 8 2 53.0934 12.4507 36.8744 -1 0 0 
288 8 2 52.1403 11.5098 39.045 -1 0 0 
289 9 1 5.09309 17.7782 57.4953 0 0 0 
290 9 1 4.1241 17.8216 58.523 0 0 0 
291 9 1 4.34615 17.2134 59.7312 0 0 0 
292 9 1 3.39242 17.2236 60.7645 0 0 0 
293 9 1 3.67503 16.7199 62.0227 0 0 0 
294 9 1 2.66123 16.7788 63.0298 0 0 0 
295 9 1 1.4041 17.348 62.7075 0 0 0 
296 9 1 54.1974 17.8783 61.4269 -1 0 0 
297 9 1 2.18141 17.8194 60.4634 0 0 0 
298 9 1 1.93765 18.5003 59.2411 0 0 0 
299 9 1 4.9443 18.3635 56.2403 0 0 0 
300 9 2 5.97567 17.2194 57.6145 0 0 0 
301 9 2 5.23854 16.6062 59.9175 0 0 0 
302 9 2 4.6386 16.2772 62.2834 0 0 0 
303 9 2 8.25655 75.6167 63.9961 0 -1 0 
304 9 2 53.6332 17.2497 63.3944 -1 0 0 
305 9 2 53.2598 18.3519 61.1837 -1 0 0 
306 9 2 54.0314 18.9624 59.037 -1 0 0 
307 9 1 2.68695 18.901 56.9665 0 0 0 
308 9 1 3.72357 18.9948 56.0291 0 0 0 
309 9 1 3.581 19.6186 54.7729 0 0 0 
310 9 1 4.56632 19.631 53.7387 0 0 0 
311 9 1 4.35828 20.2201 52.4689 0 0 0 
312 9 1 5.33369 20.0907 51.4816 0 0 0 
313 9 1 6.58309 19.4814 51.731 0 0 0 
314 9 1 6.78421 18.9717 53.0406 0 0 0 
315 9 1 5.7573 18.9961 54.0401 0 0 0 
316 9 1 5.98854 18.3732 55.2849 0 0 0 
317 9 1 2.92642 18.4086 58.2369 0 0 0 
318 9 2 1.76782 19.3931 56.7629 0 0 0 
319 9 2 2.71648 20.2314 54.5484 0 0 0 
320 9 2 3.38779 20.6208 52.259 0 0 0 
321 9 2 5.05485 20.4213 50.4458 0 0 0 
322 9 2 7.28143 19.3347 50.853 0 0 0 
323 9 2 7.72159 18.5713 53.2593 0 0 0 
324 9 2 6.93186 17.969 55.6027 0 0 0 
325 10 1 58.145 73.6778 56.1407 -1 -1 0 
326 10 1 58.2887 73.6194 57.5069 -1 -1 0 
327 10 1 57.2097 73.1213 58.2994 -1 -1 0 
328 10 1 57.3714 73.004 59.7087 -1 -1 0 
329 10 1 56.3715 72.4784 60.5647 -1 -1 0 
330 10 1 56.5263 72.5062 61.9651 -1 -1 0 
331 10 1 57.7299 72.9719 62.506 -1 -1 0 
332 10 1 58.7161 73.4666 61.6649 -1 -1 0 
333 10 1 58.559 73.4603 60.2723 -1 -1 0 
334 10 1 6.55243 73.9168 59.5245 0 -1 0 
335 10 1 53.6023 14.7888 55.2608 -1 0 0 
336 10 2 57.2544 73.2612 55.6733 -1 -1 0 
337 10 2 56.2445 72.9559 57.8986 -1 -1 0 
338 10 2 55.437 72.1113 60.078 -1 -1 0 
339 10 2 55.7252 72.1208 62.5599 -1 -1 0 
340 10 2 57.8822 73.0112 63.5515 -1 -1 0 
341 10 2 6.60411 73.8714 62.0786 0 -1 0 
342 10 2 7.46386 74.2239 59.9892 0 -1 0 
343 10 1 1.95785 15.2462 57.2519 0 0 0 
344 10 1 1.74242 15.1818 55.834 0 0 0 
345 10 1 2.80161 15.6682 55.0499 0 0 0 
346 10 1 2.67483 15.8065 53.6269 0 0 0 
347 10 1 3.71302 16.3449 52.8519 0 0 0 
348 10 1 3.50095 16.5488 51.5176 0 0 0 
349 10 1 2.25038 16.3218 50.897 0 0 0 
350 10 1 1.26155 15.6207 51.6436 0 0 0 
351 10 1 1.43823 15.3524 53.0346 0 0 0 
352 10 1 53.4258 14.7941 53.8582 -1 0 0 
353 10 1 59.4918 74.1332 58.0988 -1 -1 0 
354 10 2 2.84334 15.6428 57.7622 0 0 0 
355 10 2 3.72817 16.0123 55.5254 0 0 0 
356 10 2 4.60074 16.7407 53.2796 0 0 0 
357 10 2 4.33689 17.0502 51.0399 0 0 0 
358 10 2 2.10301 16.5269 49.8362 0 0 0 
359 10 2 53.3231 15.3516 51.1625 -1 0 0 
360 10 2 52.5422 14.4424 53.4003 -1 0 0 
361 11 1 5.95815 21.3223 71.8408 0 0 0 
362 11 1 4.88382 21.3313 72.6982 0 0 0 
363 11 1 4.96268 20.7971 73.9784 0 0 0 
364 11 1 3.87101 20.8474 74.8756 0 0 0 
365 11 1 4.082 20.3558 76.174 0 0 0 
366 11 1 2.98258 20.2301 77.024 0 0 0 
367 11 1 54.8009 20.7865 76.6008 -1 0 0 
368 11 1 54.6146 21.4128 75.3862 -1 0 0 
369 11 1 2.65538 21.4336 74.4795 0 0 0 
370 11 1 2.5071 21.9315 73.1655 0 0 0 
371 11 1 5.83984 21.7822 70.5286 0 0 0 
372 11 2 6.90836 20.9248 72.1977 0 0 0 
373 11 2 5.89352 20.2718 74.3148 0 0 0 
374 11 2 5.09491 20.0454 76.4528 0 0 0 
375 11 2 8.59418 79.0222 77.9362 0 -1 0 
376 11 2 53.9255 20.7143 77.246 -1 0 0 
377 11 2 53.607 21.8382 75.18 -1 0 0 
378 11 2 54.5951 22.4443 72.8971 -1 0 0 
379 11 1 3.51601 22.4623 70.9804 0 0 0 
380 11 1 4.6062 22.3436 70.0765 0 0 0 
381 11 1 4.54634 22.9911 68.8807 0 0 0 
382 11 1 5.64175 22.8701 67.9583 0 0 0 
383 11 1 5.57056 23.5292 66.7392 0 0 0 
384 11 1 6.71587 23.6529 65.93 0 0 0 
385 11 1 7.92344 23.0444 66.3069 0 0 0 
386 11 1 7.9488 22.2927 67.5059 0 0 0 
387 11 1 6.84683 22.258 68.3756 0 0 0 
388 11 1 6.9458 21.6985 69.6912 0 0 0 
389 11 1 3.67198 21.9459 72.2742 0 0 0 
390 11 2 2.72229 23.1172 70.7811 0 0 0 
391 11 2 3.63847 23.4949 68.679 0 0 0 
392 11 2 4.71036 24.0908 66.4173 0 0 0 
393 11 2 6.78065 24.0623 64.8911 0 0 0 
394 11 2 8.6814 23.024 65.581 0 0 0 
395 11 2 8.83424 21.7454 67.805 0 0 0 
396 11 2 7.99467 21.4259 70.0734 0 0 0 
397 12 1 58.3508 76.9991 71.2152 -1 -1 0 
398 12 1 58.6089 76.9071 72.5395 -1 -1 0 
399 12 1 57.6736 76.2426 73.3481 -1 -1 0 
400 12 1 57.903 76.025 74.6908 -1 -1 0 
401 12 1 56.9811 75.4011 75.5743 -1 -1 0 
402 12 1 57.2394 75.2639 76.9424 -1 -1 0 
403 12 1 58.4332 75.7436 77.4893 -1 -1 0 
404 12 1 59.2966 76.3879 76.6261 -1 -1 0 
405 12 1 59.0863 76.4854 75.2073 -1 -1 0 
406 12 1 60.0302 77.2059 74.4514 -1 -1 0 
407 12 1 53.8055 18.2325 70.3336 -1 0 0 
408 12 2 57.4183 76.5976 70.7997 -1 -1 0 
409 12 2 56.8095 75.8397 72.9212 -1 -1 0 
410 12 2 56.0051 75.0911 75.2224 -1 -1 0 
411 12 2 56.5152 74.7528 77.5642 -1 -1 0 
412 12 2 58.5506 75.6797 78.5602 -1 -1 0 
413 12 2 7.13104 76.8304 77.0828 0 -1 0 
414 12 2 7.89836 77.5001 74.9322 0 -1 0 
415 12 1 7.76878 77.8375 72.2806 0 -1 0 
416 12 1 1.9794 18.6445 70.8835 0 0 0 
417 12 1 2.98932 19.096 70.0318 0 0 0 
418 12 1 2.77311 19.2928 68.6715 0 0 0 
419 12 1 3.73318 19.7758 67.7219 0 0 0 
420 12 1 3.35888 20.018 66.3984 0 0 0 
421 12 1 2.11571 19.6453 65.8791 0 0 0 
422 12 1 54.2259 19.0414 66.7401 -1 0 0 
423 12 1 54.4938 18.9463 68.136 -1 0 0 
424 12 1 53.5485 18.3563 68.9605 -1 0 0 
425 12 1 59.8325 77.3325 73.0988 -1 -1 0 
426 12 2 3.22861 18.7157 72.6967 0 0 0 
427 12 2 3.81222 19.506 70.4691 0 0 0 
428 12 2 4.72222 20.0427 68.0758 0 0 0 
429 12 2 4.1299 20.5211 65.7028 0 0 0 
430 12 2 1.8056 19.9808 64.8646 0 0 0 
431 12 2 53.2282 18.8725 66.3469 -1 0 0 
432 12 2 52.621 17.9899 68.5725 -1 0 0 
433 13 1 6.80804 24.8059 85.8167 0 0 0 
434 13 1 5.64431 24.7781 86.5768 0 0 0 
435 13 1 5.70129 24.3383 87.8882 0 0 0 
436 13 1 4.53011 24.3147 88.6525 0 0 0 
437 13 1 4.58583 23.8722 89.9827 0 0 0 
438 13 1 3.41353 23.8344 90.8293 0 0 0 
439 13 1 55.2504 24.3268 90.2963 -1 0 0 
440 13 1 55.1918 24.7256 88.9679 -1 0 0 
441 13 1 3.29578 24.7569 88.1517 0 0 0 
442 13 1 3.24561 25.2985 86.8508 0 0 0 
443 13 1 6.71195 25.409 84.5043 0 0 0 
444 13 2 7.65534 24.5088 86.3536 0 0 0 
445 13 2 6.64415 23.977 88.4165 0 0 0 
446 13 2 5.49352 23.41 90.3228 0 0 0 
447 13 2 3.45725 23.4168 91.8439 0 0 0 
448 13 2 54.3926 24.3374 90.9594 -1 0 0 
449 13 2 54.2802 25.0194 88.4785 -1 0 0 
450 13 2 55.3122 25.5948 86.5307 -1 0 0 
451 13 1 4.39428 25.833 84.7232 0 0 0 
452 13 1 5.51967 25.8392 83.9647 0 0 0 
453 13 1 5.45345 26.2127 82.6429 0 0 0 
454 13 1 6.6153 26.3044 81.8411 0 0 0 
455 13 1 6.63923 26.8655 80.5587 0 0 0 
456 13 1 7.78841 26.7889 79.7465 0 0 0 
457 13 1 8.94927 26.288 80.2827 0 0 0 
458 13 1 9.04924 25.9418 81.6543 0 0 0 
459 13 1 7.85468 25.9656 82.4505 0 0 0 
460 13 1 7.89895 25.4282 83.7214 0 0 0 
461 13 1 4.43357 25.3237 86.0368 0 0 0 
462 13 2 3.47229 26.254 84.2828 0 0 0 
463 13 2 4.48153 26.515 82.285 0 0 0 
464 13 2 5.80081 27.4709 80.238 0 0 0 
465 13 2 7.75387 27.0085 78.6864 0 0 0 
466 13 2 9.88319 26.1532 79.7132 0 0 0 
467 13 2 9.94005 25.5027 82.0856 0 0 0 
468 13 2 8.84233 24.9913 84.0628 0 0 0 
469 14 1 59.2849 79.948 85.2026 -1 -1 0 
470 14 1 59.411 79.885 86.5956 -1 -1 0 
471 14 1 58.4275 79.4678 87.4817 -1 -1 0 
472 14 1 58.7258 79.4119 88.8779 -1 -1 0 
473 14 1 57.8899 78.8127 89.781 -1 -1 0 
474 14 1 58.2518 78.6549 91.1585 -1 -1 0 
475 14 1 59.3184 79.3501 91.6839 -1 -1 0 
476 14 1 60.1795 80.002 90.7965 -1 -1 0 
477 14 1 59.9204 79.9425 89.3796 -1 -1 0 
478 14 1 7.83177 80.4862 88.5398 0 -1 0 
479 14 1 60.3122 80.3476 84.3501 -1 -1 0 
480 14 2 58.3525 79.5887 84.8016 -1 -1 0 
481 14 2 57.4666 79.2696 87.079 -1 -1 0 
482 14 2 56.9854 78.3503 89.4437 -1 -1 0 
483 14 2 57.6304 78.1785 91.9011 -1 -1 0 
484 14 2 59.3857 79.4153 92.7786 -1 -1 0 
485 14 2 8.0554 80.4405 91.0942 0 -1 0 
486 14 2 8.7818 80.845 88.8977 0 -1 0 
487 14 1 8.6927 80.7774 86.3104 0 -1 0 
488 14 1 8.46332 80.813 84.9271 0 -1 0 
489 14 1 3.97678 22.026 84.0979 0 0 0 
490 14 1 3.73911 22.0748 82.7361 0 0 0 
491 14 1 4.60219 22.8563 82.0033 0 0 0 
492 14 1 4.52922 22.8702 80.6296 0 0 0 
493 14 1 3.41053 22.3069 80.0228 0 0 0 
494 14 1 2.40519 21.7115 80.7693 0 0 0 
495 14 1 2.53654 21.6437 82.1431 0 0 0 
496 14 1 60.1108 80.4039 82.9331 -1 -1 0 
497 14 1 7.59874 80.3834 87.1402 0 -1 0 
498 14 2 9.66572 81.198 86.7198 0 -1 0 
499 14 2 4.82685 22.5432 84.5366 0 0 0 
500 14 2 5.53025 23.2585 82.4999 0 0 0 
501 14 2 5.20301 23.3193 79.9527 0 0 0 
502 14 2 3.3092 22.3678 78.9515 0 0 0 
503 14 2 54.6355 21.1429 80.3025 -1 0 0 
504 14 2 59.1821 80.1964 82.3744 -1 -1 0 
505 15 1 7.68297 28.2272 99.5127 0 0 0 
506 15 1 6.6179 28.2512 100.417 0 0 0 
507 15 1 6.78267 27.5486 101.636 0 0 0 
508 15 1 5.73372 27.5283 102.574 0 0 0 
509 15 1 5.79836 26.8048 103.729 0 0 0 
510 15 1 4.71795 26.7643 104.601 0 0 0 
511 15 1 3.5657 27.5554 104.367 0 0 0 
512 15 1 3.44304 28.2388 103.146 0 0 0 
513 15 1 4.54201 28.2032 102.274 0 0 0 
514 15 1 4.35753 28.7373 100.96 0 0 0 
515 15 1 7.51056 28.8338 98.2335 0 0 0 
516 15 2 8.67852 27.7554 99.8613 0 0 0 
517 15 2 7.73457 26.9461 101.75 0 0 0 
518 15 2 6.65114 26.1543 103.903 0 0 0 
519 15 2 10.4479 85.6914 105.539 0 -1 0 
520 15 2 55.8369 27.5661 105.115 -1 0 0 
521 15 2 55.6814 28.8706 102.921 -1 0 0 
522 15 2 3.38705 29.2039 100.675 0 0 0 
523 15 1 5.21713 29.394 98.7993 0 0 0 
524 15 1 6.26906 29.4019 97.8769 0 0 0 
525 15 1 6.18178 30.0817 96.6619 0 0 0 
526 15 1 7.29981 29.9394 95.7606 0 0 0 
527 15 1 7.13669 30.4921 94.433 0 0 0 
528 15 1 8.23833 30.4303 93.5057 0 0 0 
529 15 1 9.47943 29.8318 93.9183 0 0 0 
530 15 1 9.58122 29.2262 95.1963 0 0 0 
531 15 1 8.46359 29.2627 96.0678 0 0 0 
532 15 1 8.58656 28.7875 97.3517 0 0 0 
533 15 1 5.44297 28.8525 100.054 0 0 0 
534 15 2 4.21312 29.7574 98.5378 0 0 0 
535 15 2 5.27523 30.6419 96.4193 0 0 0 
536 15 2 6.20986 30.8796 94.1114 0 0 0 
537 15 2 8.06752 30.8854 92.5186 0 0 0 
538 15 2 10.3329 29.7798 93.23 0 0 0 
539 15 2 10.5139 28.8187 95.6613 0 0 0 
540 15 2 9.51652 28.2415 97.4968 0 0 0 
541 16 1 54.4285 24.9921 98.5115 -1 0 0 
542 16 1 60.0568 84.1374 99.9442 -1 -1 0 
543 16 1 59.0276 83.4431 100.619 -1 -1 0 
544 16 1 59.1389 83.2511 101.985 -1 -1 0 
545 16 1 58.0714 82.7119 102.646 -1 -1 0 
546 16 1 58.1279 82.378 103.969 -1 -1 0 
547 16 1 59.3559 82.5552 104.665 -1 -1 0 
548 16 1 60.4401 83.1568 104.006 -1 -1 0 
549 16 1 60.358 83.5103 102.671 -1 -1 0 
550 16 1 8.41808 84.0074 101.942 0 -1 0 
551 16 1 55.6222 25.2958 97.7644 -1 0 0 
552 16 2 59.1061 84.089 97.9101 -1 -1 0 
553 16 2 58.1148 83.1669 100.15 -1 -1 0 
554 16 2 57.1776 82.5394 102.117 -1 -1 0 
555 16 2 57.1431 82.1061 104.415 -1 -1 0 
556 16 2 59.4072 82.3863 105.641 -1 -1 0 
557 16 2 8.29608 83.3576 104.569 0 -1 0 
558 16 2 9.3805 83.9428 102.505 0 -1 0 
559 16 1 3.83112 25.4644 99.878 0 0 0 
560 16 1 3.75344 25.6329 98.4806 0 0 0 
561 16 1 4.90681 25.9865 97.7659 0 0 0 
562 16 1 4.88714 26.0321 96.325 0 0 0 
563 16 1 6.01713 26.4382 95.6098 0 0 0 
564 16 1 5.9626 26.4401 94.1737 0 0 0 
565 16 1 4.76518 26.1488 93.4502 0 0 0 
566 16 1 3.64244 25.7613 94.203 0 0 0 
567 16 1 3.75175 25.6344 95.6183 0 0 0 
568 16 1 55.6909 25.2266 96.3694 -1 0 0 
569 16 1 8.23975 84.3458 100.579 0 -1 0 
570 16 2 4.82831 25.5308 100.317 0 0 0 
571 16 2 5.82048 26.2075 98.3051 0 0 0 
572 16 2 6.85833 26.8053 96.0516 0 0 0 
573 16 2 6.85364 26.7596 93.647 0 0 0 
574 16 2 4.77605 26.2483 92.3582 0 0 0 
575 16 2 2.76727 25.5204 93.5812 0 0 0 
576 16 2 54.7945 24.9351 95.818 -1 0 0 
577 17 1 9.55911 39.3882 112.41 0 0 -1 
578 17 1 8.47134 39.4186 113.34 0 0 -1 
579 17 1 3.76803 11.54 0.318072 0 0 0 
580 17 1 2.80238 11.7145 1.33308 0 0 0 
581 17 1 2.90492 11.1798 2.6616 0 0 0 
582 17 1 1.78045 11.2978 3.57388 0 0 0 
583 17 1 0.679545 12.033 3.16235 0 0 0 
584 17 1 0.637678 12.7175 1.91119 0 0 0 
585 17 1 1.63282 12.4944 0.984543 0 0 0 
586 17 1 1.53111 13.0508 -0.294306 0 0 0 
587 17 1 9.39617 40.0001 111.156 0 0 -1 
588 17 2 10.476 38.8188 112.573 0 0 -1 
589 17 2 4.6597 11.0241 0.532722 0 0 0 
590 17 2 3.76057 10.6049 3.03233 0 0 0 
591 17 2 1.77977 10.8518 4.56136 0 0 0 
592 17 2 -0.123625 12.1174 3.84312 0 0 0 
593 17 2 52.7773 13.2703 1.60384 -1 0 0 
594 17 2 0.62333 13.5262 -0.604979 0 0 0 
595 17 1 7.15422 40.7805 111.894 0 0 -1 
596 17 1 8.14046 40.6569 110.915 0 0 -1 
597 17 1 7.89439 41.1952 109.63 0 0 -1 
598 17 1 8.83451 41.0692 108.594 0 0 -1 
599 17 1 8.56292 41.6359 107.346 0 0 -1 
600 17 1 9.57581 41.5644 106.342 0 0 -1 
601 17 1 10.8765 41.0327 106.591 0 0 -1 
602 17 1 11.0701 40.5268 107.869 0 0 -1 
603 17 1 10.1027 40.4586 108.859 0 0 -1 
604 17 1 10.3567 39.9563 110.143 0 0 -1 
605 17 1 7.3484 40.2229 113.106 0 0 -1 
606 17 2 6.27004 41.3846 111.72 0 0 -1 
607 17 2 7.01592 41.6587 109.408 0 0 -1 
608 17 2 7.62949 42.1313 107.196 0 0 -1 
609 17 2 9.39139 41.9654 105.374 0 0 -1 
610 17 2 11.6469 41.0051 105.898 0 0 -1 
611 17 2 12.1345 40.1277 108.027 0 0 -1 
612 17 2 11.3061 39.4641 110.292 0 0 -1 
613 18 1 55.9087 35.7262 112.409 -1 0 -1 
614 18 1 51.4102 8.5228 -0.435967 -1 0 0 
615 18 1 50.4794 7.98148 0.456595 -1 0 0 
616 18 1 50.6769 7.93738 1.8102 -1 0 0 
617 18 1 49.7522 7.34821 2.64982 -1 0 0 
618 18 1 49.9695 7.1832 4.02496 -1 0 0 
619 18 1 51.1129 7.75493 4.53836 -1 0 0 
620 18 1 52.088 8.37124 3.71961 -1 0 0 
621 18 1 51.8814 8.50547 2.30147 -1 0 0 
622 18 1 -0.169936 9.00654 1.43393 0 0 0 
623 18 1 56.8795 36.3204 111.581 -1 0 -1 
624 18 2 54.9412 35.3038 111.963 -1 0 -1 
625 18 2 49.5278 7.57449 0.0776422 -1 0 0 
626 18 2 48.936 6.79726 2.22164 -1 0 0 
627 18 2 49.2367 6.60883 4.62546 -1 0 0 
628 18 2 51.3537 7.62264 5.56301 -1 0 0 
629 18 2 -0.043311 8.7515 4.21403 0 0 0 
630 18 2 0.728674 9.35888 1.89478 0 0 0 
631 18 1 5.27979 36.7416 113.456 0 0 -1 
632 18 1 5.05834 36.8572 112.093 0 0 -1 
633 18 1 5.94163 37.5136 111.275 0 0 -1 
634 18 1 5.77401 37.3948 109.89 0 0 -1 
635 18 1 6.81158 37.8049 109.033 0 0 -1 
636 18 1 6.65234 37.8515 107.663 0 0 -1 
637 18 1 5.52724 37.3118 107.079 0 0 -1 
638 18 1 4.45192 36.845 107.92 0 0 -1 
639 18 1 4.58335 36.9155 109.323 0 0 -1 
640 18 1 56.6764 36.339 110.17 -1 0 -1 
641 18 1 -0.401083 9.01359 0.0877045 0 0 0 
642 18 2 1.52321 9.83471 -0.344035 0 0 0 
643 18 2 6.87922 37.7495 111.641 0 0 -1 
644 18 2 7.82792 38.0432 109.389 0 0 -1 
645 18 2 7.46257 38.2568 107.066 0 0 -1 
646 18 2 5.35806 37.3894 106.075 0 0 -1 
647 18 2 56.5813 36.4983 107.496 -1 0 -1 
648 18 2 55.7564 35.8475 109.837 -1 0 -1 
649 19 1 5.30071 15.6096 12.9565 0 0 0 
650 19 1 4.2678 15.5082 13.884 0 0 0 
651 19 1 4.50271 14.8955 15.1245 0 0 0 
652 19 1 3.46924 14.9473 16.1242 0 0 0 
653 19 1 3.72947 14.571 17.4535 0 0 0 
654 19 1 2.73881 14.5099 18.4159 0 0 0 
655 19 1 1.39507 14.933 18.0861 0 0 0 
656 19 1 1.12384 15.4541 16.8167 0 0 0 
657 19 1 2.21312 15.4965 15.8192 0 0 0 
658 19 1 1.94965 16.0561 14.5748 0 0 0 
659 19 1 5.09236 16.1022 11.654 0 0 0 
660 19 2 6.27607 15.2127 13.0519 0 0 0 
661 19 2 5.49765 14.5635 15.451 0 0 0 
662 19 2 4.63433 14.2574 17.7808 0 0 0 
663 19 2 3.02503 14.1561 19.3958 0 0 0 
664 19 2 0.644544 14.8161 18.8101 0 0 0 
665 19 2 53.1652 15.7718 16.5245 -1 0 0 
666 19 2 0.902425 16.4424 14.355 0 0 0 
667 19 1 2.78639 16.6556 12.3367 0 0 0 
668 19 1 3.82585 16.6358 11.3789 0 0 0 
669 19 1 3.64212 17.291 10.1342 0 0 0 
670 19 1 4.65382 17.3431 9.16405 0 0 0 
671 19 1 4.50494 17.9682 7.92386 0 0 0 
672 19 1 5.57883 18.0844 7.02851 0 0 0 
673 19 1 6.77964 17.564 7.35643 0 0 0 
674 19 1 6.95827 16.9043 8.57054 0 0 0 
675 19 1 5.88816 16.7813 9.48714 0 0 0 
676 19 1 6.14999 16.1048 10.71 0 0 0 
677 19 1 3.00229 16.0294 13.5923 0 0 0 
678 19 2 1.85616 17.1319 12.0729 0 0 0 
679 19 2 2.70057 17.7238 9.92276 0 0 0 
680 19 2 3.55144 18.3484 7.59081 0 0 0 
681 19 2 5.3754 18.5523 6.07374 0 0 0 
682 19 2 7.59517 17.5745 6.6634 0 0 0 
683 19 2 7.91337 16.3756 8.79052 0 0 0 
684 19 2 7.0979 15.6748 11.0107 0 0 0 
685 20 1 52.0304 12.1702 11.6813 -1 0 0 
686 20 1 52.2758 11.9819 13.0686 -1 0 0 
687 20 1 51.3203 11.4443 13.9357 -1 0 0 
688 20 1 51.4024 11.4608 15.3087 -1 0 0 
689 20 1 50.3969 10.9411 16.1369 -1 0 0 
690 20 1 50.6936 10.7844 17.5052 -1 0 0 
691 20 1 51.8129 11.2847 18.0684 -1 0 0 
692 20 1 52.8196 11.798 17.2245 -1 0 0 
693 20 1 52.6533 11.8317 15.8485 -1 0 0 
694 20 1 0.619936 12.3542 14.9973 0 0 0 
695 20 1 0.0346832 12.6522 10.8744 0 0 0 
696 20 2 51.103 11.8477 11.2097 -1 0 0 
697 20 2 50.3754 11.0385 13.4873 -1 0 0 
698 20 2 49.5055 10.544 15.6936 -1 0 0 
699 20 2 49.9771 10.3532 18.1399 -1 0 0 
700 20 2 52.043 11.2049 19.1271 -1 0 0 
701 20 2 0.726547 12.0441 17.6381 0 0 0 
702 20 2 1.60197 12.6822 15.3231 0 0 0 
703 20 1 1.49035 12.89 12.8098 0 0 0 
704 20 1 1.25498 13.0148 11.4413 0 0 0 
705 20 1 2.24143 13.5012 10.567 0 0 0 
706 20 1 2.04461 13.4878 9.17995 0 0 0 
707 20 1 3.07945 13.9198 8.346 0 0 0 
708 20 1 2.87279 14.0811 6.96526 0 0 0 
709 20 1 1.69842 13.7411 6.36364 0 0 0 
710 20 1 0.655106 13.1918 7.14039 0 0 0 
711 20 1 0.87082 13.0927 8.58 0 0 0 
712 20 1 -0.147807 12.6635 9.47344 0 0 0 
713 20 1 0.478469 12.3404 13.5891 0 0 0 
714 20 2 2.47617 13.0735 13.2935 0 0 0 
715 20 2 3.1891 13.9486 10.9025 0 0 0 
716 20 2 3.98747 14.2705 8.7439 0 0 0 
717 20 2 3.72299 14.4211 6.3798 0 0 0 
718 20 2 1.47809 13.7358 5.30873 0 0 0 
719 20 2 52.6865 13.0327 6.73762 -1 0 0 
720 20 2 51.9336 12.3641 9.10148 -1 0 0 
721 21 1 5.37035 18.7538 28.0182 0 0 0 
722 21 1 4.34767 18.703 28.9684 0 0 0 
723 21 1 4.54246 18.1439 30.2848 0 0 0 
724 21 1 3.47734 18.1819 31.2598 0 0 0 
725 21 1 3.65521 17.7166 32.5558 0 0 0 
726 21 1 2.63388 17.7738 33.458 0 0 0 
727 21 1 1.38231 18.3151 33.1066 0 0 0 
728 21 1 1.21225 18.7703 31.8165 0 0 0 
729 21 1 2.23514 18.7579 30.8629 0 0 0 
730 21 1 2.0438 19.1583 29.5587 0 0 0 
731 21 1 5.19658 19.2185 26.738 0 0 0 
732 21 2 6.29975 18.3536 28.3147 0 0 0 
733 21 2 5.47589 17.7475 30.6422 0 0 0 
734 21 2 4.60542 17.2676 32.7942 0 0 0 
735 21 2 2.69678 17.4202 34.4912 0 0 0 
736 21 2 53.7371 18.489 33.9366 -1 0 0 
737 21 2 53.2495 19.2418 31.5859 -1 0 0 
738 21 2 1.00792 19.5211 29.1909 0 0 0 
739 21 1 2.87105 19.7667 27.4024 0 0 0 
740 21 1 3.90986 19.7684 26.46 0 0 0 
741 21 1 3.68895 20.2351 25.1658 0 0 0 
742 21 1 4.70189 20.1301 24.1594 0 0 0 
743 21 1 4.4976 20.7391 22.8887 0 0 0 
744 21 1 5.54121 20.6581 21.9946 0 0 0 
745 21 1 6.83038 20.0709 22.2364 0 0 0 