PENCEN_single_noQ_noImp

36 atoms
40 bonds
66 angles
104 dihedrals

2 atom types
2 bond types
2 angle types
1 dihedral types

-100.000000 100.000000 xlo xhi
-100.000000 100.000000 ylo yhi
-100.000000 100.000000 zlo zhi

Masses

1	12.010700
2	1.008000

Atoms

1	1	1	-1.192500	-0.479200	-0.576300	0	0	0
2	1	1	-1.007200	-0.571700	0.822000	0	0	0
3	1	1	-1.987800	-1.143900	1.655400	0	0	0
4	1	1	-1.809700	-1.243700	3.007100	0	0	0
5	1	1	-2.793900	-1.817200	3.889900	0	0	0
6	1	1	-2.588800	-1.913900	5.231700	0	0	0
7	1	1	-1.355400	-1.433300	5.810800	0	0	0
8	1	1	-0.410400	-0.878700	5.033900	0	0	0
9	1	1	-0.599600	-0.754900	3.607400	0	0	0
10	1	1	0.384700	-0.189600	2.803700	0	0	0
11	1	1	-0.228400	0.078600	-1.418100	0	0	0
12	1	2	-1.982200	-0.800700	-0.948000	0	0	0
13	1	2	-2.776000	-1.461600	1.277600	0	0	0
14	1	2	-3.593300	-2.130600	3.531700	0	0	0
15	1	2	-3.243000	-2.289000	5.775700	0	0	0
16	1	2	-1.215100	-1.508400	6.726700	0	0	0
17	1	2	0.377600	-0.570500	5.419500	0	0	0
18	1	2	1.166800	0.123200	3.197200	0	0	0
19	1	1	1.192500	0.479200	0.576300	0	0	0
20	1	1	1.007200	0.571700	-0.822000	0	0	0
21	1	1	1.987800	1.143900	-1.655400	0	0	0
22	1	1	1.809700	1.243700	-3.007100	0	0	0
23	1	1	2.793900	1.817200	-3.889900	0	0	0
24	1	1	2.588800	1.913900	-5.231700	0	0	0
25	1	1	1.355400	1.433300	-5.810800	0	0	0
26	1	1	0.410400	0.878700	-5.033900	0	0	0
27	1	1	0.599600	0.754900	-3.607400	0	0	0
28	1	1	-0.384700	0.189600	-2.803700	0	0	0
29	1	1	0.228400	-0.078600	1.418100	0	0	0
30	1	2	1.982200	0.800700	0.948000	0	0	0
31	1	2	2.776000	1.461600	-1.277600	0	0	0
32	1	2	3.593300	2.130600	-3.531700	0	0	0
33	1	2	3.243000	2.289000	-5.775700	0	0	0
34	1	2	1.215100	1.508400	-6.726700	0	0	0
35	1	2	-0.377600	0.570500	-5.419500	0	0	0
36	1	2	-1.166800	-0.123200	-3.197200	0	0	0

Bonds

1	1	1	2
2	1	1	11
3	2	1	12
4	1	2	3
5	1	2	29
6	1	3	4
7	2	3	13
8	1	4	5
9	1	4	9
10	1	5	6
11	2	5	14
12	1	6	7
13	2	6	15
14	1	7	8
15	2	7	16
16	1	8	9
17	2	8	17
18	1	9	10
19	2	10	18
20	1	10	29
21	1	11	20
22	1	11	28
23	1	19	20
24	1	19	29
25	2	19	30
26	1	20	21
27	1	21	22
28	2	21	31
29	1	22	23
30	1	22	27
31	1	23	24
32	2	23	32
33	1	24	25
34	2	24	33
35	1	25	26
36	2	25	34
37	1	26	27
38	2	26	35
39	1	27	28
40	2	28	36

Angles

1	1	2	1	11
2	2	2	1	12
3	2	11	1	12
4	1	3	2	29
5	1	3	2	1
6	1	29	2	1
7	2	4	3	13
8	1	4	3	2
9	2	13	3	2
10	1	5	4	9
11	1	5	4	3
12	1	9	4	3
13	2	6	5	14
14	1	6	5	4
15	2	14	5	4
16	2	7	6	15
17	1	7	6	5
18	2	15	6	5
19	2	8	7	16
20	1	8	7	6
21	2	16	7	6
22	2	9	8	17
23	1	9	8	7
24	2	17	8	7
25	1	10	9	4
26	1	10	9	8
27	1	4	9	8
28	2	18	10	29
29	2	18	10	9
30	1	29	10	9
31	1	20	11	28
32	1	20	11	1
33	1	28	11	1
34	1	20	19	29
35	2	20	19	30
36	2	29	19	30
37	1	21	20	11
38	1	21	20	19
39	1	11	20	19
40	2	22	21	31
41	1	22	21	20
42	2	31	21	20
43	1	23	22	27
44	1	23	22	21
45	1	27	22	21
46	2	24	23	32
47	1	24	23	22
48	2	32	23	22
49	2	25	24	33
50	1	25	24	23
51	2	33	24	23
52	2	26	25	34
53	1	26	25	24
54	2	34	25	24
55	2	27	26	35
56	1	27	26	25
57	2	35	26	25
58	1	28	27	22
59	1	28	27	26
60	1	22	27	26
61	2	36	28	11
62	2	36	28	27
63	1	11	28	27
64	1	2	29	10
65	1	2	29	19
66	1	10	29	19

Dihedrals

1	1	1	2	3	4
2	1	1	2	3	13
3	1	1	2	29	10
4	1	1	2	29	19
5	1	1	11	20	21
6	1	1	11	20	19
7	1	1	11	28	36
8	1	1	11	28	27
9	1	2	1	11	20
10	1	2	1	11	28
11	1	2	3	4	5
12	1	2	3	4	9
13	1	2	29	10	18
14	1	2	29	10	9
15	1	2	29	19	20
16	1	2	29	19	30
17	1	3	2	1	11
18	1	3	2	1	12
19	1	3	2	29	10
20	1	3	2	29	19
21	1	3	4	5	6
22	1	3	4	5	14
23	1	3	4	9	10
24	1	3	4	9	8
25	1	4	3	2	29
26	1	4	5	6	7
27	1	4	5	6	15
28	1	4	9	8	17
29	1	4	9	8	7
30	1	4	9	10	18
31	1	4	9	10	29
32	1	5	4	3	13
33	1	5	4	9	10
34	1	5	4	9	8
35	1	5	6	7	8
36	1	5	6	7	16
37	1	6	5	4	9
38	1	6	7	8	9
39	1	6	7	8	17
40	1	7	6	5	14
41	1	7	8	9	10
42	1	8	7	6	15
43	1	8	9	10	18
44	1	8	9	10	29
45	1	9	4	3	13
46	1	9	4	5	14
47	1	9	8	7	16
48	1	9	10	29	19
49	1	10	9	8	17
50	1	10	29	19	20
51	1	10	29	19	30
52	1	11	1	2	29
53	1	11	20	19	29
54	1	11	20	19	30
55	1	11	20	21	22
56	1	11	20	21	31
57	1	11	28	27	22
58	1	11	28	27	26
59	1	12	1	2	29
60	1	12	1	11	20
61	1	12	1	11	28
62	1	13	3	2	29
63	1	14	5	6	15
64	1	15	6	7	16
65	1	16	7	8	17
66	1	18	10	29	19
67	1	19	20	11	28
68	1	19	20	21	22
69	1	19	20	21	31
70	1	20	11	28	36
71	1	20	11	28	27
72	1	20	21	22	23
73	1	20	21	22	27
74	1	21	20	11	28
75	1	21	20	19	29
76	1	21	20	19	30
77	1	21	22	23	24
78	1	21	22	23	32
79	1	21	22	27	28
80	1	21	22	27	26
81	1	22	23	24	25
82	1	22	23	24	33
83	1	22	27	26	35
84	1	22	27	26	25
85	1	22	27	28	36
86	1	23	22	21	31
87	1	23	22	27	28
88	1	23	22	27	26
89	1	23	24	25	26
90	1	23	24	25	34
91	1	24	23	22	27
92	1	24	25	26	27
93	1	24	25	26	35
94	1	25	24	23	32
95	1	25	26	27	28
96	1	26	25	24	33
97	1	26	27	28	36
98	1	27	22	21	31
99	1	27	22	23	32
100	1	27	26	25	34
101	1	28	27	26	35
102	1	32	23	24	33
103	1	33	24	25	34
104	1	34	25	26	35
