ITEM: TIMESTEP
5000
ITEM: NUMBER OF ATOMS
36864
ITEM: BOX BOUNDS xy xz yz pp pp pp
-1.2920507710863542e+00 6.1729010299258675e+01 5.5494495383062645e+00
1.1461529366084957e+00 8.7983299794646427e+01 4.7595099898656983e+00
-6.9822104248359396e-01 1.1369338704248413e+02 2.7196983731255067e+01
ITEM: ATOMS id mol type x y z ix iy iz 
1 1 1 8.54116 31.5549 113.674 0 0 -1 
2 1 1 2.79817 4.14281 0.214621 0 0 0 
3 1 1 3.04309 3.62767 1.47931 0 0 0 
4 1 1 2.00846 3.56932 2.46674 0 0 0 
5 1 1 2.27118 3.03877 3.72477 0 0 0 
6 1 1 1.30165 2.89783 4.73122 0 0 0 
7 1 1 0.0212723 3.35552 4.48008 0 0 0 
8 1 1 -0.290336 3.94959 3.23324 0 0 0 
9 1 1 0.695709 4.00138 2.21549 0 0 0 
10 1 1 0.393379 4.47456 0.940366 0 0 0 
11 1 1 8.25685 31.927 112.411 0 0 -1 
12 1 2 4.81217 3.99399 -0.563247 0 0 0 
13 1 2 4.03409 3.22569 1.6083 0 0 0 
14 1 2 3.28552 2.74397 3.87421 0 0 0 
15 1 2 6.99353 62.0512 5.70571 0 -1 0 
16 1 2 -0.763506 3.21806 5.30267 0 0 0 
17 1 2 51.3893 4.22349 3.06289 -1 0 0 
18 1 2 -0.51719 4.89218 0.693369 0 0 0 
19 1 1 5.95569 32.2788 113.065 0 0 -1 
20 1 1 6.999 32.4305 112.099 0 0 -1 
21 1 1 6.76233 32.9375 110.799 0 0 -1 
22 1 1 7.76841 33.0333 109.845 0 0 -1 
23 1 1 7.49857 33.6826 108.635 0 0 -1 
24 1 1 8.40123 33.5291 107.555 0 0 -1 
25 1 1 9.67814 32.9913 107.79 0 0 -1 
26 1 1 9.94599 32.4778 109.094 0 0 -1 
27 1 1 8.987 32.4766 110.162 0 0 -1 
28 1 1 9.26616 31.9353 111.463 0 0 -1 
29 1 1 1.46762 4.58365 -0.0761845 0 0 0 
30 1 2 4.97099 32.5812 112.86 0 0 -1 
31 1 2 5.80545 33.3823 110.528 0 0 -1 
32 1 2 6.46987 33.9729 108.331 0 0 -1 
33 1 2 8.15914 33.9401 106.546 0 0 -1 
34 1 2 10.4476 32.9781 106.97 0 0 -1 
35 1 2 11.0222 32.1695 109.302 0 0 -1 
36 1 2 10.2744 31.7584 111.783 0 0 -1 
37 2 1 60.5447 87.557 112.248 -1 -1 -1 
38 2 1 60.7982 87.37 113.633 -1 -1 -1 
39 2 1 55.0494 59.6916 0.0828572 -1 -1 0 
40 2 1 55.3104 59.4008 1.45249 -1 -1 0 
41 2 1 54.2539 59.127 2.40859 -1 -1 0 
42 2 1 54.5857 58.9167 3.74494 -1 -1 0 
43 2 1 55.8616 59.3111 4.2752 -1 -1 0 
44 2 1 56.8964 59.6422 3.38581 -1 -1 0 
45 2 1 56.6236 59.7069 1.99282 -1 -1 0 
46 2 1 4.85744 60.2583 1.14655 0 -1 0 
47 2 1 56.0365 28.4157 111.443 -1 0 -1 
48 2 2 59.6373 87.2398 111.807 -1 -1 -1 
49 2 2 54.1053 59.6901 -0.332248 -1 -1 0 
50 2 2 53.18 58.9751 2.03245 -1 -1 0 
51 2 2 53.729 58.7969 4.37319 -1 -1 0 
52 2 2 55.9944 59.3995 5.33184 -1 -1 0 
53 2 2 5.19258 59.9362 3.67529 0 -1 0 
54 2 2 5.79046 60.6742 1.57949 0 -1 0 
55 2 1 4.87703 28.4596 113.352 0 0 -1 
56 2 1 4.58062 28.6801 112 0 0 -1 
57 2 1 5.60306 29.2514 111.213 0 0 -1 
58 2 1 5.47285 29.3455 109.813 0 0 -1 
59 2 1 6.56273 29.9133 109.134 0 0 -1 
60 2 1 6.41267 30.0021 107.754 0 0 -1 
61 2 1 5.28276 29.546 107.123 0 0 -1 
62 2 1 4.16456 29.0441 107.811 0 0 -1 
63 2 1 4.3219 28.9469 109.203 0 0 -1 
64 2 1 55.9015 28.6338 110.029 -1 0 -1 
65 2 1 4.65011 60.4226 -0.215607 0 -1 0 
66 2 2 1.05866 1.58938 -0.555151 0 0 0 
67 2 2 6.54952 29.4145 111.675 0 0 -1 
68 2 2 7.46461 30.3033 109.512 0 0 -1 
69 2 2 7.14338 30.4024 107.083 0 0 -1 
70 2 2 5.1454 29.6537 106.019 0 0 -1 
71 2 2 3.21463 28.7375 107.359 0 0 -1 
72 2 2 54.9998 28.4263 109.657 -1 0 -1 
73 3 1 4.32979 7.52035 13.8546 0 0 0 
74 3 1 3.28467 7.40551 14.7677 0 0 0 
75 3 1 3.49213 6.72665 15.9625 0 0 0 
76 3 1 2.52505 6.69724 16.9338 0 0 0 
77 3 1 2.76717 6.02999 18.1575 0 0 0 
78 3 1 1.81808 5.93903 19.1233 0 0 0 
79 3 1 0.601436 6.60764 18.9215 0 0 0 
80 3 1 0.342452 7.33067 17.7427 0 0 0 
81 3 1 1.30413 7.35113 16.7233 0 0 0 
82 3 1 1.01498 7.96064 15.4827 0 0 0 
83 3 1 4.05559 8.05647 12.5856 0 0 0 
84 3 2 5.39038 7.26108 14.0544 0 0 0 
85 3 2 4.45161 6.2168 16.1027 0 0 0 
86 3 2 9.23344 65.2652 18.3085 0 -1 0 
87 3 2 7.596 64.989 20.0471 0 -1 0 
88 3 2 -0.216548 6.50847 19.6331 0 0 0 
89 3 2 52.1165 7.83495 17.5873 -1 0 0 
90 3 2 -0.0187038 8.30154 15.2379 0 0 0 
91 3 1 1.77032 8.68174 13.2567 0 0 0 
92 3 1 2.78995 8.5991 12.2869 0 0 0 
93 3 1 2.47595 9.09546 10.9938 0 0 0 
94 3 1 3.51292 9.09788 10.0136 0 0 0 
95 3 1 3.23687 9.71979 8.78757 0 0 0 
96 3 1 4.29417 9.82098 7.89015 0 0 0 
97 3 1 5.48892 9.1102 8.08278 0 0 0 
98 3 1 5.69981 8.45372 9.26431 0 0 0 
99 3 1 4.77651 8.50082 10.2739 0 0 0 
100 3 1 5.02196 7.97176 11.5694 0 0 0 
101 3 1 2.05918 8.04578 14.5196 0 0 0 
102 3 2 0.838343 9.10415 13.0322 0 0 0 
103 3 2 1.55801 9.46615 10.6059 0 0 0 
104 3 2 2.21303 10.1084 8.55771 0 0 0 
105 3 2 4.06976 10.3375 6.95639 0 0 0 
106 3 2 6.18814 9.01664 7.25219 0 0 0 
107 3 2 6.63676 7.99166 9.49319 0 0 0 
108 3 2 5.9152 7.54078 11.893 0 0 0 
109 4 1 56.3222 63.6526 12.9662 -1 -1 0 
110 4 1 56.5624 63.4177 14.3226 -1 -1 0 
111 4 1 55.5313 62.9406 15.1867 -1 -1 0 
112 4 1 55.7089 62.8568 16.5609 -1 -1 0 
113 4 1 54.6928 62.2442 17.3559 -1 -1 0 
114 4 1 54.9052 62.2025 18.7693 -1 -1 0 
115 4 1 56.0912 62.6583 19.3649 -1 -1 0 
116 4 1 57.0933 63.1354 18.5575 -1 -1 0 
117 4 1 56.9166 63.2475 17.1708 -1 -1 0 
118 4 1 5.24762 63.6989 16.335 0 -1 0 
119 4 1 51.7811 4.44559 12.1619 -1 0 0 
120 4 2 55.3446 63.455 12.5527 -1 -1 0 
121 4 2 54.6365 62.5857 14.7165 -1 -1 0 
122 4 2 53.8415 61.6923 16.9594 -1 -1 0 
123 4 2 54.1816 61.7455 19.4377 -1 -1 0 
124 4 2 56.2674 62.4759 20.3816 -1 -1 0 
125 4 2 5.28163 63.5794 18.9731 0 -1 0 
126 4 2 6.20099 64.0155 16.7205 0 -1 0 
127 4 1 0.483813 4.74747 14.1345 0 0 0 
128 4 1 0.292942 4.82271 12.7384 0 0 0 
129 4 1 1.28691 5.30319 11.8468 0 0 0 
130 4 1 1.0701 5.29907 10.4561 0 0 0 
131 4 1 2.06527 5.74949 9.58849 0 0 0 
132 4 1 1.86418 5.87447 8.20892 0 0 0 
133 4 1 0.644992 5.50088 7.63858 0 0 0 
134 4 1 -0.411352 5.1546 8.52394 0 0 0 
135 4 1 -0.157251 5.02074 9.93131 0 0 0 
136 4 1 51.5906 4.51976 10.7911 -1 0 0 
137 4 1 5.03182 63.8009 14.9473 0 -1 0 
138 4 2 1.43283 5.03561 14.5523 0 0 0 
139 4 2 2.19257 5.62543 12.2988 0 0 0 
140 4 2 3.05273 6.04692 10.0014 0 0 0 
141 4 2 2.58793 6.28135 7.59186 0 0 0 
142 4 2 0.506779 5.47884 6.59046 0 0 0 
143 4 2 51.406 4.87794 8.05367 -1 0 0 
144 4 2 50.5995 4.24765 10.4237 -1 0 0 
145 5 1 5.02415 10.9081 28.1615 0 0 0 
146 5 1 3.99224 10.9344 29.0828 0 0 0 
147 5 1 4.18874 10.3336 30.3486 0 0 0 
148 5 1 3.24807 10.4674 31.3464 0 0 0 
149 5 1 3.52564 9.90179 32.6151 0 0 0 
150 5 1 2.50124 9.91345 33.5956 0 0 0 
151 5 1 1.20192 10.4097 33.3711 0 0 0 
152 5 1 1.03666 11.0896 32.1385 0 0 0 
153 5 1 1.96984 11.0784 31.0546 0 0 0 
154 5 1 1.72469 11.602 29.7862 0 0 0 
155 5 1 4.77955 11.4685 26.8771 0 0 0 
156 5 2 5.91764 10.399 28.419 0 0 0 
157 5 2 5.07351 9.83755 30.5818 0 0 0 
158 5 2 4.42883 9.43269 32.8353 0 0 0 
159 5 2 8.3242 68.9706 34.4537 0 -1 0 
160 5 2 0.477141 10.4793 34.2673 0 0 0 
161 5 2 52.7849 11.5706 31.9561 -1 0 0 
162 5 2 0.817872 12.1213 29.6318 0 0 0 
163 5 1 2.51832 12.1088 27.5313 0 0 0 
164 5 1 3.52971 12.0444 26.5751 0 0 0 
165 5 1 3.26777 12.483 25.2701 0 0 0 
166 5 1 4.31107 12.4954 24.2888 0 0 0 
167 5 1 4.12277 12.9287 22.903 0 0 0 
168 5 1 5.20178 12.9829 21.9672 0 0 0 
169 5 1 6.52584 12.7423 22.4271 0 0 0 
170 5 1 6.66042 12.146 23.7249 0 0 0 
171 5 1 5.64521 12.1144 24.6795 0 0 0 
172 5 1 5.8806 11.5107 25.9452 0 0 0 
173 5 1 2.71855 11.5921 28.7843 0 0 0 
174 5 2 1.56421 12.5064 27.1991 0 0 0 
175 5 2 2.2326 12.7897 25.0329 0 0 0 
176 5 2 3.12497 13.0963 22.5809 0 0 0 
177 5 2 5.05175 13.2878 20.9045 0 0 0 
178 5 2 7.47641 12.7624 21.818 0 0 0 
179 5 2 7.62592 11.794 24.041 0 0 0 
180 5 2 6.83027 11.1068 26.2641 0 0 0 
181 6 1 56.8801 67.0721 27.9263 -1 -1 0 
182 6 1 57.1674 67.0218 29.332 -1 -1 0 
183 6 1 56.2619 66.3944 30.2305 -1 -1 0 
184 6 1 56.6359 66.241 31.5887 -1 -1 0 
185 6 1 55.7714 65.7136 32.5409 -1 -1 0 
186 6 1 56.1775 65.5658 33.8537 -1 -1 0 
187 6 1 57.4538 65.938 34.2935 -1 -1 0 
188 6 1 5.56856 66.5558 33.3511 0 -1 0 
189 6 1 57.9111 66.7051 31.9801 -1 -1 0 
190 6 1 6.11339 67.1715 31.077 0 -1 0 
191 6 1 52.2452 7.96518 26.9506 -1 0 0 
192 6 2 55.9726 66.6594 27.5611 -1 -1 0 
193 6 2 55.1945 66.2076 30.0281 -1 -1 0 
194 6 2 54.8015 65.4639 32.2227 -1 -1 0 
195 6 2 55.4621 65.0538 34.5223 -1 -1 0 
196 6 2 57.6418 65.8103 35.3036 -1 -1 0 
197 6 2 6.51079 66.91 33.6919 0 -1 0 
198 6 2 7.16513 67.3056 31.4094 0 -1 0 
199 6 1 1.16028 8.17081 28.7892 0 0 0 
200 6 1 0.832278 8.31116 27.4291 0 0 0 
201 6 1 1.8014 8.82282 26.5382 0 0 0 
202 6 1 1.43799 8.76882 25.1545 0 0 0 
203 6 1 2.4585 9.16776 24.283 0 0 0 
204 6 1 2.25126 9.00787 22.9124 0 0 0 
205 6 1 1.13065 8.40967 22.4006 0 0 0 
206 6 1 0.120565 8.03897 23.2887 0 0 0 
207 6 1 0.255363 8.22487 24.6639 0 0 0 
208 6 1 51.9584 7.90949 25.5933 -1 0 0 
209 6 1 5.75402 67.3565 29.746 0 -1 0 
210 6 2 2.13142 8.42065 29.1552 0 0 0 
211 6 2 2.84986 8.99269 26.8578 0 0 0 
212 6 2 3.40403 9.65496 24.5565 0 0 0 
213 6 2 3.09582 9.18649 22.263 0 0 0 
214 6 2 0.978054 8.24916 21.2685 0 0 0 
215 6 2 51.9176 7.50987 22.892 -1 0 0 
216 6 2 56.6684 66.9363 25.2254 -1 -1 0 
217 7 1 4.89993 14.2491 42.3471 0 0 0 
218 7 1 3.9444 14.3555 43.401 0 0 0 
219 7 1 4.15588 13.7277 44.646 0 0 0 
220 7 1 3.18926 13.7189 45.6918 0 0 0 
221 7 1 3.47002 13.0094 46.8752 0 0 0 
222 7 1 2.52104 12.9693 47.8901 0 0 0 
223 7 1 1.20503 13.5703 47.7494 0 0 0 
224 7 1 0.954366 14.3405 46.5883 0 0 0 
225 7 1 1.9525 14.4278 45.5902 0 0 0 
226 7 1 1.758 15.0139 44.3024 0 0 0 
227 7 1 4.66834 14.9825 41.2126 0 0 0 
228 7 2 5.84214 13.6404 42.3647 0 0 0 
229 7 2 5.09916 13.1486 44.751 0 0 0 
230 7 2 4.37104 12.5745 47.0894 0 0 0 
231 7 2 8.29754 72.0795 48.7905 0 -1 0 
232 7 2 53.225 13.4611 48.492 -1 0 0 
233 7 2 52.6564 14.5525 46.3673 -1 0 0 
234 7 2 53.4518 15.3783 44.0638 -1 0 0 
235 7 1 2.43949 15.6911 42.0688 0 0 0 
236 7 1 3.46082 15.6516 41.0098 0 0 0 
237 7 1 3.27561 16.3738 39.869 0 0 0 
238 7 1 4.19126 16.4813 38.8347 0 0 0 
239 7 1 3.9943 17.3049 37.716 0 0 0 
240 7 1 5.03593 17.3805 36.7477 0 0 0 
241 7 1 6.20424 16.7244 36.9972 0 0 0 
242 7 1 6.36367 15.8859 38.0496 0 0 0 
243 7 1 5.39455 15.8442 39.0487 0 0 0 
244 7 1 5.64602 15.043 40.1911 0 0 0 
245 7 1 2.68919 14.9173 43.218 0 0 0 
246 7 2 1.49215 16.2722 41.8933 0 0 0 
247 7 2 2.37787 16.8997 39.7628 0 0 0 
248 7 2 3.08576 17.8709 37.587 0 0 0 
249 7 2 4.8436 18.0221 35.8933 0 0 0 
250 7 2 6.91694 16.7013 36.2751 0 0 0 
251 7 2 7.20474 15.2864 38.0813 0 0 0 
252 7 2 6.63784 14.5992 40.4102 0 0 0 
253 8 1 57.1636 70.4438 41.8674 -1 -1 0 
254 8 1 57.3582 70.4346 43.2959 -1 -1 0 
255 8 1 56.3386 69.9575 44.1347 -1 -1 0 
256 8 1 56.6079 69.8258 45.5232 -1 -1 0 
257 8 1 55.6302 69.2702 46.3265 -1 -1 0 
258 8 1 55.9788 68.985 47.6598 -1 -1 0 
259 8 1 57.1946 69.3473 48.2176 -1 -1 0 
260 8 1 58.2017 69.8896 47.3836 -1 -1 0 
261 8 1 57.8779 70.1178 46.0322 -1 -1 0 
262 8 1 6.16848 70.5353 45.1575 0 -1 0 
263 8 1 52.619 11.3572 41.042 -1 0 0 
264 8 2 56.1306 70.2022 41.4489 -1 -1 0 
265 8 2 55.3526 69.8009 43.851 -1 -1 0 
266 8 2 54.6564 69.0295 46.0534 -1 -1 0 
267 8 2 55.1938 68.6693 48.3242 -1 -1 0 
268 8 2 57.3454 69.18 49.2871 -1 -1 0 
269 8 2 6.48619 70.1439 47.756 0 -1 0 
270 8 2 7.20363 70.7489 45.4104 0 -1 0 
271 8 1 1.39771 11.5195 42.9979 0 0 0 
272 8 1 1.13537 11.6861 41.6161 0 0 0 
273 8 1 2.16742 12.1255 40.7504 0 0 0 
274 8 1 2.0514 12.2451 39.3765 0 0 0 
275 8 1 3.1991 12.6879 38.5987 0 0 0 
276 8 1 2.96872 12.9026 37.1897 0 0 0 
277 8 1 1.66589 12.6561 36.6175 0 0 0 
278 8 1 0.556452 12.2612 37.4692 0 0 0 
279 8 1 0.778267 12.0646 38.8463 0 0 0 
280 8 1 52.4301 11.5572 39.6761 -1 0 0 
281 8 1 58.6092 70.7476 43.8217 -1 -1 0 
282 8 2 2.29851 11.8145 43.4032 0 0 0 
283 8 2 3.17835 12.2816 41.2503 0 0 0 
284 8 2 4.17146 12.8783 39.0197 0 0 0 
285 8 2 3.81808 13.3115 36.615 0 0 0 
286 8 2 1.42312 12.7661 35.5384 0 0 0 
287 8 2 52.2844 12.0309 37.034 -1 0 0 
288 8 2 51.4125 11.3229 39.2949 -1 0 0 
289 9 1 5.44553 17.7793 57.2731 0 0 0 
290 9 1 4.42346 17.7549 58.2928 0 0 0 
291 9 1 4.63369 17.0805 59.4716 0 0 0 
292 9 1 3.62507 17.0792 60.4701 0 0 0 
293 9 1 3.82804 16.3793 61.6898 0 0 0 
294 9 1 2.81927 16.2641 62.6908 0 0 0 
295 9 1 1.64329 16.9868 62.4826 0 0 0 
296 9 1 54.1285 17.6448 61.2515 -1 0 0 
297 9 1 2.41657 17.7331 60.2549 0 0 0 
298 9 1 2.24196 18.4866 59.0769 0 0 0 
299 9 1 5.22313 18.3817 56.0134 0 0 0 
300 9 2 6.34911 17.1808 57.5424 0 0 0 
301 9 2 5.61845 16.5871 59.6936 0 0 0 
302 9 2 4.75647 15.8382 61.9632 0 0 0 
303 9 2 8.40963 75.1369 63.4514 0 -1 0 
304 9 2 53.574 16.8096 63.1893 -1 0 0 
305 9 2 53.1567 18.0233 61.0637 -1 0 0 
306 9 2 54.0408 19.0201 58.9965 -1 0 0 
307 9 1 3.00774 19.0777 56.8185 0 0 0 
308 9 1 3.96843 18.9853 55.8006 0 0 0 
309 9 1 3.7077 19.4994 54.5371 0 0 0 
310 9 1 4.72113 19.415 53.4886 0 0 0 
311 9 1 4.46262 19.9457 52.2242 0 0 0 
312 9 1 5.45786 19.8745 51.2585 0 0 0 
313 9 1 6.69625 19.2897 51.5242 0 0 0 
314 9 1 6.90399 18.7147 52.7473 0 0 0 
315 9 1 5.93078 18.7308 53.7274 0 0 0 
316 9 1 6.19912 18.317 55.0098 0 0 0 
317 9 1 3.27023 18.4761 58.0526 0 0 0 
318 9 2 2.11804 19.7211 56.7285 0 0 0 
319 9 2 2.74719 19.9975 54.3623 0 0 0 
320 9 2 3.52473 20.5295 52.1067 0 0 0 
321 9 2 5.27602 20.3007 50.2529 0 0 0 
322 9 2 7.46223 19.1946 50.8067 0 0 0 
323 9 2 7.92308 18.2541 53.0022 0 0 0 
324 9 2 7.0734 17.6881 55.1229 0 0 0 
325 10 1 57.8575 73.7699 56.0371 -1 -1 0 
326 10 1 58.045 73.6433 57.4373 -1 -1 0 
327 10 1 56.9447 73.1164 58.2073 -1 -1 0 
328 10 1 57.1632 73.076 59.6446 -1 -1 0 
329 10 1 56.148 72.527 60.4849 -1 -1 0 
330 10 1 56.4555 72.2287 61.7886 -1 -1 0 
331 10 1 57.6336 72.6833 62.3583 -1 -1 0 
332 10 1 58.6081 73.3318 61.5714 -1 -1 0 
333 10 1 58.3959 73.4217 60.2005 -1 -1 0 
334 10 1 6.67649 73.9648 59.4004 0 -1 0 
335 10 1 53.4112 14.5946 55.2324 -1 0 0 
336 10 2 56.906 73.5274 55.6056 -1 -1 0 
337 10 2 55.9563 72.8219 57.823 -1 -1 0 
338 10 2 55.1651 72.3487 60.1107 -1 -1 0 
339 10 2 55.6965 71.8399 62.4851 -1 -1 0 
340 10 2 57.869 72.5066 63.3603 -1 -1 0 
341 10 2 6.88538 73.5595 61.9837 0 -1 0 
342 10 2 7.71258 74.211 59.7974 0 -1 0 
343 10 1 7.62648 74.4767 57.2461 0 -1 0 
344 10 1 1.91511 15.0121 55.8729 0 0 0 
345 10 1 2.95284 15.5096 55.153 0 0 0 
346 10 1 2.86102 15.6482 53.7636 0 0 0 
347 10 1 3.94211 16.1759 53.1196 0 0 0 
348 10 1 3.91749 16.3118 51.691 0 0 0 
349 10 1 2.79145 15.8545 51.0435 0 0 0 
350 10 1 1.61707 15.3227 51.7328 0 0 0 
351 10 1 1.68346 15.2175 53.1347 0 0 0 
352 10 1 53.3279 14.7547 53.849 -1 0 0 
353 10 1 59.2613 74.0131 58.0239 -1 -1 0 
354 10 2 8.53402 74.728 57.8091 0 -1 0 
355 10 2 3.83323 15.9324 55.7169 0 0 0 
356 10 2 4.80303 16.5516 53.7026 0 0 0 
357 10 2 4.71164 16.7502 51.1209 0 0 0 
358 10 2 2.85066 15.6353 49.9014 0 0 0 
359 10 2 53.4505 15.1 51.0917 -1 0 0 
360 10 2 52.4434 14.4934 53.3162 -1 0 0 
361 11 1 6.31592 21.3223 71.7478 0 0 0 
362 11 1 5.24778 21.2753 72.6541 0 0 0 
363 11 1 5.35038 20.6731 73.9284 0 0 0 
364 11 1 4.28509 20.6059 74.8201 0 0 0 
365 11 1 4.44972 19.9393 76.0729 0 0 0 
366 11 1 3.35223 19.877 76.9036 0 0 0 
367 11 1 2.10737 20.4926 76.5372 0 0 0 
368 11 1 54.6296 21.086 75.2713 -1 0 0 
369 11 1 3.04136 21.2369 74.4935 0 0 0 
370 11 1 2.94475 21.8177 73.216 0 0 0 
371 11 1 6.13887 21.8241 70.4092 0 0 0 
372 11 2 7.25601 20.8585 72.0267 0 0 0 
373 11 2 6.2282 20.1487 74.208 0 0 0 
374 11 2 5.36547 19.4276 76.3518 0 0 0 
375 11 2 9.05182 79.0413 77.8389 0 -1 0 
376 11 2 54.0162 20.4518 77.2574 -1 0 0 
377 11 2 53.6433 21.3582 74.9547 -1 0 0 
378 11 2 54.7075 22.3068 72.8861 -1 0 0 
379 11 1 3.91041 22.5401 71.0823 0 0 0 
380 11 1 4.91125 22.4844 70.106 0 0 0 
381 11 1 4.72182 23.0108 68.8392 0 0 0 
382 11 1 5.75313 22.9376 67.8861 0 0 0 
383 11 1 5.53849 23.4255 66.559 0 0 0 
384 11 1 6.54065 23.3463 65.5763 0 0 0 
385 11 1 7.74705 22.6709 65.8933 0 0 0 
386 11 1 7.97824 22.1949 67.1969 0 0 0 
387 11 1 6.99545 22.3708 68.2121 0 0 0 
388 11 1 7.23739 21.7977 69.4525 0 0 0 
389 11 1 4.04763 21.8961 72.2947 0 0 0 
390 11 2 3.08717 23.2493 70.9132 0 0 0 
391 11 2 3.78531 23.5324 68.5946 0 0 0 
392 11 2 4.65355 23.915 66.1819 0 0 0 
393 11 2 6.41832 23.7482 64.6329 0 0 0 
394 11 2 8.64486 22.5778 65.2316 0 0 0 
395 11 2 8.91073 21.688 67.493 0 0 0 
396 11 2 8.14836 21.2014 69.6162 0 0 0 
397 12 1 58.1654 77.3322 70.9634 -1 -1 0 
398 12 1 58.3363 77.2041 72.3215 -1 -1 0 
399 12 1 57.2758 76.7529 73.1617 -1 -1 0 
400 12 1 57.4646 76.7113 74.5708 -1 -1 0 
401 12 1 56.4871 76.1312 75.3779 -1 -1 0 
402 12 1 56.635 76.1315 76.7452 -1 -1 0 
403 12 1 57.7917 76.5409 77.3369 -1 -1 0 
404 12 1 58.9082 76.9264 76.5264 -1 -1 0 
405 12 1 58.6716 77.0917 75.1725 -1 -1 0 
406 12 1 59.7617 77.4693 74.3016 -1 -1 0 
407 12 1 53.6428 18.2456 70.1648 -1 0 0 
408 12 2 57.1994 77.0419 70.4913 -1 -1 0 
409 12 2 56.3902 76.2369 72.7057 -1 -1 0 
410 12 2 55.6297 75.668 74.919 -1 -1 0 
411 12 2 55.8527 75.6695 77.338 -1 -1 0 
412 12 2 57.8111 76.4848 78.4141 -1 -1 0 
413 12 2 59.8404 77.233 76.9831 -1 -1 0 
414 12 2 8.02159 77.6989 74.8127 0 -1 0 
415 12 1 2.34581 18.3907 72.1437 0 0 0 
416 12 1 2.17606 18.5577 70.7317 0 0 0 
417 12 1 3.2243 19.1046 69.9828 0 0 0 
418 12 1 3.09662 19.3699 68.6007 0 0 0 
419 12 1 4.19752 19.7415 67.8077 0 0 0 
420 12 1 4.01917 19.8809 66.402 0 0 0 
421 12 1 2.82162 19.5923 65.8184 0 0 0 
422 12 1 54.4603 19.1098 66.6106 -1 0 0 
423 12 1 1.8453 19.0405 68.0398 0 0 0 
424 12 1 53.5076 18.4428 68.7826 -1 0 0 
425 12 1 59.5714 77.5338 72.9372 -1 -1 0 
426 12 2 8.92576 78.2605 72.5782 0 -1 0 
427 12 2 4.15682 19.3807 70.4617 0 0 0 
428 12 2 5.16835 19.9832 68.2763 0 0 0 
429 12 2 4.86357 20.3748 65.9006 0 0 0 
430 12 2 2.65988 19.6462 64.6977 0 0 0 
431 12 2 53.4876 18.8724 66.1959 -1 0 0 
432 12 2 52.5442 18.2046 68.29 -1 0 0 
433 13 1 6.86865 25.1648 84.8096 0 0 0 
434 13 1 5.86151 25.1501 85.7698 0 0 0 
435 13 1 6.0815 24.6752 87.0041 0 0 0 
436 13 1 5.00119 24.6516 87.8888 0 0 0 
437 13 1 5.25287 24.1992 89.2022 0 0 0 
438 13 1 4.18264 24.325 90.2104 0 0 0 
439 13 1 2.95381 24.8933 89.8139 0 0 0 
440 13 1 55.5007 25.3376 88.4632 -1 0 0 
441 13 1 3.77583 25.1852 87.4946 0 0 0 
442 13 1 3.55186 25.7242 86.2411 0 0 0 
443 13 1 6.70108 25.7671 83.5334 0 0 0 
444 13 2 7.79779 24.7264 85.0982 0 0 0 
445 13 2 7.06434 24.3527 87.4121 0 0 0 
446 13 2 6.27229 23.91 89.5065 0 0 0 
447 13 2 4.33312 23.9166 91.1434 0 0 0 
448 13 2 54.9113 25.095 90.5185 -1 0 0 
449 13 2 54.5501 25.8752 88.1947 -1 0 0 
450 13 2 55.2768 26.0683 85.9612 -1 0 0 
451 13 1 4.43211 26.2824 84.0989 0 0 0 
452 13 1 5.47622 26.3397 83.1298 0 0 0 
453 13 1 5.38209 27.0867 81.9244 0 0 0 
454 13 1 6.42279 27.1117 81.0082 0 0 0 
455 13 1 6.35628 27.614 79.7121 0 0 0 
456 13 1 7.41365 27.4777 78.7631 0 0 0 
457 13 1 8.60065 26.8504 79.173 0 0 0 
458 13 1 8.71048 26.3254 80.4286 0 0 0 
459 13 1 7.64969 26.4776 81.3755 0 0 0 
460 13 1 7.71229 25.7635 82.606 0 0 0 
461 13 1 4.58093 25.6563 85.3872 0 0 0 
462 13 2 3.43429 26.8119 83.9326 0 0 0 
463 13 2 4.48582 27.6611 81.6712 0 0 0 
464 13 2 5.46697 28.1473 79.3925 0 0 0 
465 13 2 7.26913 27.8324 77.7906 0 0 0 
466 13 2 9.3939 26.6211 78.4102 0 0 0 
467 13 2 9.528 25.7168 80.6142 0 0 0 
468 13 2 8.69212 25.3995 82.8997 0 0 0 
469 14 1 53.5471 21.5054 84.5661 -1 0 0 
470 14 1 59.2512 81.0252 85.9483 -1 -1 0 
471 14 1 58.2338 80.7253 86.8596 -1 -1 0 
472 14 1 58.4605 80.5886 88.2569 -1 -1 0 
473 14 1 57.4252 80.2753 89.1302 -1 -1 0 
474 14 1 57.7039 80.0666 90.505 -1 -1 0 
475 14 1 59.0761 80.0198 90.8797 -1 -1 0 
476 14 1 60.0433 80.5026 90.0392 -1 -1 0 
477 14 1 59.744 80.8111 88.7191 -1 -1 0 
478 14 1 8.01025 81.3207 87.9019 0 -1 0 
479 14 1 54.5254 21.984 83.7633 -1 0 0 
480 14 2 58.1204 80.8779 84.091 -1 -1 0 
481 14 2 57.2075 80.6038 86.5613 -1 -1 0 
482 14 2 56.4335 80.0086 88.746 -1 -1 0 
483 14 2 56.8324 79.8526 91.1022 -1 -1 0 
484 14 2 59.2442 79.8515 91.9296 -1 -1 0 
485 14 2 8.405 80.6229 90.4295 0 -1 0 
486 14 2 9.01785 81.5273 88.2775 0 -1 0 
487 14 1 3.1882 22.35 85.6881 0 0 0 
488 14 1 2.98624 22.4391 84.3248 0 0 0 
489 14 1 3.94894 22.9114 83.4702 0 0 0 
490 14 1 3.83703 22.9578 82.0449 0 0 0 
491 14 1 4.82619 23.4959 81.2626 0 0 0 
492 14 1 4.54055 23.6205 79.8919 0 0 0 
493 14 1 3.44511 22.9809 79.29 0 0 0 
494 14 1 2.46446 22.3876 80.1325 0 0 0 
495 14 1 2.65498 22.4393 81.48 0 0 0 
496 14 1 54.3797 21.9705 82.3338 -1 0 0 
497 14 1 54.8842 21.8488 86.5346 -1 0 0 
498 14 2 4.2246 22.5936 86.0406 0 0 0 
499 14 2 4.86071 23.1456 83.9292 0 0 0 
500 14 2 5.65278 23.961 81.7676 0 0 0 
501 14 2 5.16009 24.2089 79.2627 0 0 0 
502 14 2 3.37071 22.9793 78.1519 0 0 0 
503 14 2 54.2795 21.9396 79.7156 -1 0 0 
504 14 2 53.4213 21.6514 81.8422 -1 0 0 
505 15 1 7.75269 28.4339 99.0249 0 0 0 
506 15 1 6.72886 28.3144 99.9659 0 0 0 
507 15 1 7.02942 27.7614 101.227 0 0 0 
508 15 1 6.05743 27.7281 102.211 0 0 0 
509 15 1 6.29229 27.1335 103.457 0 0 0 
510 15 1 5.31034 27.0309 104.437 0 0 0 
511 15 1 4.02215 27.5742 104.199 0 0 0 
512 15 1 3.80192 28.1548 102.904 0 0 0 
513 15 1 4.77748 28.1941 101.933 0 0 0 
514 15 1 4.53364 28.8086 100.747 0 0 0 
515 15 1 7.49308 29.0187 97.7597 0 0 0 
516 15 2 8.78354 28.1318 99.299 0 0 0 
517 15 2 7.99145 27.3819 101.477 0 0 0 
518 15 2 7.29228 26.7983 103.622 0 0 0 
519 15 2 5.5822 26.5137 105.375 0 0 0 
520 15 2 56.0415 27.6715 105.028 -1 0 0 
521 15 2 55.5529 28.7096 102.796 -1 0 0 
522 15 2 3.45736 29.0583 100.593 0 0 0 
523 15 1 5.19848 29.4913 98.4802 0 0 0 
524 15 1 6.23345 29.6107 97.544 0 0 0 
525 15 1 5.96602 30.2171 96.334 0 0 0 
526 15 1 6.9727 30.2494 95.3173 0 0 0 
527 15 1 6.70982 30.8297 94.0813 0 0 0 
528 15 1 7.78096 30.9408 93.1704 0 0 0 
529 15 1 9.01431 30.3067 93.4325 0 0 0 
530 15 1 9.25086 29.6444 94.608 0 0 0 
531 15 1 8.23237 29.588 95.5813 0 0 0 
532 15 1 8.47659 29.0777 96.8056 0 0 0 
533 15 1 5.48061 28.8737 99.7228 0 0 0 
534 15 2 4.31023 30.0375 98.3381 0 0 0 
535 15 2 5.08896 30.8554 96.2781 0 0 0 
536 15 2 5.78011 31.314 93.9068 0 0 0 
537 15 2 7.70603 31.6168 92.3304 0 0 0 
538 15 2 9.78657 30.4339 92.7006 0 0 0 
539 15 2 10.2261 29.2625 94.8803 0 0 0 
540 15 2 9.46667 28.6123 96.9789 0 0 0 
541 16 1 59.7627 83.9807 99.0075 -1 -1 0 
542 16 1 59.8723 83.8592 100.391 -1 -1 0 
543 16 1 58.7714 83.2351 101.138 -1 -1 0 
544 16 1 58.9183 83.2015 102.509 -1 -1 0 
545 16 1 57.8972 82.6878 103.285 -1 -1 0 
546 16 1 58.0045 82.6499 104.68 -1 -1 0 
547 16 1 59.1961 83.0583 105.344 -1 -1 0 
548 16 1 60.2598 83.6192 104.537 -1 -1 0 
549 16 1 60.1444 83.5873 103.117 -1 -1 0 
550 16 1 8.36705 84.272 102.41 0 -1 0 
551 16 1 55.2257 24.9482 98.2609 -1 0 0 
552 16 2 58.9011 83.4607 98.4984 -1 -1 0 
553 16 2 57.9126 83.0043 100.51 -1 -1 0 
554 16 2 57.0992 82.4249 102.793 -1 -1 0 
555 16 2 57.2318 82.1652 105.267 -1 -1 0 
556 16 2 59.3131 83.0194 106.468 -1 -1 0 
557 16 2 61.2258 83.9352 104.96 -1 -1 0 
558 16 2 9.21468 84.6991 102.961 0 -1 0 
559 16 1 3.80682 25.3103 100.333 0 0 0 
560 16 1 3.70946 25.3158 98.951 0 0 0 
561 16 1 4.77172 25.8918 98.207 0 0 0 
562 16 1 4.64751 26.022 96.7804 0 0 0 
563 16 1 5.68265 26.6358 96.0762 0 0 0 
564 16 1 5.76075 26.7299 94.6875 0 0 0 
565 16 1 4.60147 26.2754 93.9946 0 0 0 
566 16 1 3.49386 25.7566 94.6783 0 0 0 
567 16 1 3.50843 25.5854 96.1234 0 0 0 
568 16 1 55.1479 25.0675 96.8637 -1 0 0 
569 16 1 60.9587 84.4203 101.062 -1 -1 0 
570 16 2 4.77939 25.5171 100.867 0 0 0 
571 16 2 5.67414 26.2057 98.7291 0 0 0 
572 16 2 6.55488 26.9412 96.584 0 0 0 
573 16 2 6.58492 27.2918 94.2815 0 0 0 
574 16 2 4.44487 26.3185 92.9776 0 0 0 
575 16 2 55.3321 25.4735 94.0546 -1 0 0 
576 16 2 54.133 24.7538 96.4052 -1 0 0 
577 17 1 4.5421 11.2776 -0.691813 0 0 0 
578 17 1 3.45989 11.3888 0.256792 0 0 0 
579 17 1 3.56439 10.8183 1.49062 0 0 0 
580 17 1 2.51026 10.7669 2.4101 0 0 0 
581 17 1 2.62772 10.1972 3.66315 0 0 0 
582 17 1 1.5747 10.2035 4.58284 0 0 0 
583 17 1 0.350056 10.7838 4.24834 0 0 0 
584 17 1 0.225779 11.3671 2.97595 0 0 0 
585 17 1 1.27983 11.4028 2.04579 0 0 0 
586 17 1 1.18308 12.0382 0.81042 0 0 0 
587 17 1 9.2787 39.1276 112.446 0 0 -1 
588 17 2 5.45494 10.8216 -0.367076 0 0 0 
589 17 2 4.45988 10.2633 1.75022 0 0 0 
590 17 2 3.53288 9.64641 3.96037 0 0 0 
591 17 2 1.70658 9.80281 5.57112 0 0 0 
592 17 2 52.1728 10.7892 4.81311 -1 0 0 
593 17 2 51.9676 11.8308 2.84121 -1 0 0 
594 17 2 0.205323 12.5534 0.542428 0 0 0 
595 17 1 6.94945 39.7694 113.007 0 0 -1 
596 17 1 8.05386 39.7657 112.131 0 0 -1 
597 17 1 7.90033 40.4426 110.893 0 0 -1 
598 17 1 8.87822 40.3777 109.882 0 0 -1 
599 17 1 8.65405 40.9924 108.602 0 0 -1 
600 17 1 9.72698 40.8745 107.676 0 0 -1 
601 17 1 10.941 40.2479 107.909 0 0 -1 
602 17 1 11.1431 39.74 109.22 0 0 -1 
603 17 1 10.0841 39.7215 110.199 0 0 -1 
604 17 1 10.2894 39.1121 111.518 0 0 -1 
605 17 1 2.27929 12.0566 -0.0911489 0 0 0 
606 17 2 6.06054 40.291 112.832 0 0 -1 
607 17 2 6.96996 40.9451 110.663 0 0 -1 
608 17 2 7.7542 41.5226 108.264 0 0 -1 
609 17 2 9.51878 41.2876 106.694 0 0 -1 
610 17 2 11.8049 40.2108 107.292 0 0 -1 
611 17 2 12.0724 39.2158 109.39 0 0 -1 
612 17 2 11.1782 38.5223 111.702 0 0 -1 
613 18 1 56.0972 35.1848 112.877 -1 0 -1 
614 18 1 51.4627 7.69337 -0.12735 -1 0 0 
615 18 1 50.3829 7.208 0.684052 -1 0 0 
616 18 1 50.5505 6.92104 2.05633 -1 0 0 
617 18 1 49.5221 6.31219 2.78715 -1 0 0 
618 18 1 49.7133 6.18441 4.19835 -1 0 0 
619 18 1 50.9077 6.57525 4.80557 -1 0 0 
620 18 1 51.9452 7.16954 3.99702 -1 0 0 
621 18 1 51.7403 7.35717 2.62424 -1 0 0 
622 18 1 0.100482 7.9379 1.88445 0 0 0 
623 18 1 4.46583 35.6789 112.148 0 0 -1 
624 18 2 55.1468 35.0658 112.335 -1 0 -1 
625 18 2 49.4329 6.93934 0.283421 -1 0 0 
626 18 2 48.5584 6.10079 2.28925 -1 0 0 
627 18 2 48.8444 5.78902 4.79778 -1 0 0 
628 18 2 50.9467 6.59573 5.90794 -1 0 0 
629 18 2 0.186203 7.47271 4.31256 0 0 0 
630 18 2 1.01258 8.27637 2.40937 0 0 0 
631 18 1 1.03803 8.65018 -0.180211 0 0 0 
632 18 1 5.7024 35.9143 112.79 0 0 -1 
633 18 1 6.78281 36.3763 112.025 0 0 -1 
634 18 1 6.63336 36.5719 110.641 0 0 -1 
635 18 1 7.71851 37.0924 109.956 0 0 -1 
636 18 1 7.63918 37.1982 108.572 0 0 -1 
637 18 1 6.41584 36.8655 107.843 0 0 -1 
638 18 1 5.37477 36.3447 108.589 0 0 -1 
639 18 1 5.42174 36.1863 110.016 0 0 -1 
640 18 1 4.38606 35.655 110.748 0 0 -1 
641 18 1 -0.0741281 8.08251 0.533043 0 0 0 
642 18 2 1.94763 8.93878 0.324869 0 0 0 
643 18 2 7.72659 36.6309 112.49 0 0 -1 
644 18 2 8.62285 37.3594 110.49 0 0 -1 
645 18 2 8.53276 37.6353 108.084 0 0 -1 
646 18 2 6.41801 37.1051 106.749 0 0 -1 
647 18 2 4.44317 36.1796 108.122 0 0 -1 
648 18 2 56.2249 35.3829 110.29 -1 0 -1 
649 19 1 4.89927 15.1597 13.8666 0 0 0 
650 19 1 3.77892 15.1098 14.7253 0 0 0 
651 19 1 3.9833 14.4618 15.9712 0 0 0 
652 19 1 3.00691 14.5347 16.948 0 0 0 
653 19 1 3.23071 13.7792 18.065 0 0 0 
654 19 1 2.20726 13.534 19.0158 0 0 0 
655 19 1 0.968995 14.1955 18.8544 0 0 0 
656 19 1 0.809098 15.0383 17.7615 0 0 0 
657 19 1 1.77912 15.1498 16.6997 0 0 0 
658 19 1 1.52825 15.7849 15.448 0 0 0 
659 19 1 4.69074 15.825 12.6236 0 0 0 
660 19 2 5.87765 14.8414 14.1414 0 0 0 
661 19 2 4.91926 13.8631 16.1756 0 0 0 
662 19 2 4.16896 13.3231 18.0664 0 0 0 
663 19 2 2.36786 12.95 19.9072 0 0 0 
664 19 2 52.9767 14.2366 19.6696 -1 0 0 
665 19 2 52.5686 15.5672 17.6469 -1 0 0 
666 19 2 0.542476 16.2122 15.2961 0 0 0 
667 19 1 2.45384 16.3923 13.247 0 0 0 
668 19 1 3.49892 16.4914 12.3098 0 0 0 
669 19 1 3.34793 17.1313 11.119 0 0 0 
670 19 1 4.33794 17.0001 10.121 0 0 0 
671 19 1 4.15879 17.4768 8.80659 0 0 0 
672 19 1 5.13407 17.3377 7.88213 0 0 0 
673 19 1 6.35845 16.7244 8.18656 0 0 0 
674 19 1 6.63163 16.283 9.46905 0 0 0 
675 19 1 5.55672 16.3855 10.4366 0 0 0 
676 19 1 5.75062 15.7807 11.6808 0 0 0 
677 19 1 2.53851 15.7671 14.4614 0 0 0 
678 19 2 1.50788 16.8218 12.9612 0 0 0 
679 19 2 2.40927 17.6286 10.9269 0 0 0 
680 19 2 3.21834 17.981 8.51689 0 0 0 
681 19 2 4.91156 17.4868 6.86283 0 0 0 
682 19 2 7.00462 16.485 7.31498 0 0 0 
683 19 2 7.61358 15.878 9.72584 0 0 0 
684 19 2 6.6188 15.2617 11.8834 0 0 0 
685 20 1 51.8786 11.5294 12.9403 -1 0 0 
686 20 1 52.0464 11.522 14.3039 -1 0 0 
687 20 1 51.0501 11.0631 15.2006 -1 0 0 
688 20 1 51.4122 10.8283 16.5427 -1 0 0 
689 20 1 50.3882 10.3983 17.43 -1 0 0 
690 20 1 50.6702 10.2176 18.8095 -1 0 0 
691 20 1 51.9696 10.4911 19.2508 -1 0 0 
692 20 1 0.297982 10.9009 18.4025 0 0 0 
693 20 1 52.7045 11.1384 17.0445 -1 0 0 
694 20 1 0.922305 11.7566 16.1743 0 0 0 
695 20 1 0.14757 11.9408 12.0681 0 0 0 
696 20 2 50.9272 11.2774 12.5335 -1 0 0 
697 20 2 50.1176 10.6855 14.8317 -1 0 0 
698 20 2 49.3557 10.3683 17.117 -1 0 0 
699 20 2 49.9313 10.1439 19.5923 -1 0 0 
700 20 2 52.0911 10.4694 20.339 -1 0 0 
701 20 2 1.25012 11.0358 18.8614 0 0 0 
702 20 2 1.94874 11.9906 16.5376 0 0 0 
703 20 1 1.58415 12.4044 13.9658 0 0 0 
704 20 1 1.32836 12.442 12.6015 0 0 0 
705 20 1 2.22095 13.127 11.7859 0 0 0 
706 20 1 2.05651 13.0725 10.4239 0 0 0 
707 20 1 2.97808 13.5858 9.57225 0 0 0 
708 20 1 2.72576 13.6581 8.18253 0 0 0 
709 20 1 1.54176 13.164 7.60404 0 0 0 
710 20 1 0.581992 12.4952 8.43631 0 0 0 
711 20 1 0.844676 12.507 9.8541 0 0 0 
712 20 1 52.5853 11.982 10.6951 -1 0 0 
713 20 1 0.629728 11.8257 14.7884 0 0 0 
714 20 2 2.64968 12.5943 14.287 0 0 0 
715 20 2 3.04126 13.4892 12.2903 0 0 0 
716 20 2 3.83895 14.0885 9.90328 0 0 0 
717 20 2 3.42255 14.2263 7.61364 0 0 0 
718 20 2 1.39502 13.2549 6.55057 0 0 0 
719 20 2 52.4129 11.988 7.92344 -1 0 0 
720 20 2 51.6417 11.5527 10.2658 -1 0 0 
721 21 1 5.27266 18.4819 28.2963 0 0 0 
722 21 1 4.22178 18.4769 29.1419 0 0 0 
723 21 1 4.41825 18.0237 30.4287 0 0 0 
724 21 1 3.37744 18.041 31.3658 0 0 0 
725 21 1 3.59845 17.5881 32.7272 0 0 0 
726 21 1 2.55535 17.5512 33.6266 0 0 0 
727 21 1 1.30481 18.0048 33.2198 0 0 0 
728 21 1 1.07974 18.5152 31.966 0 0 0 
729 21 1 2.05721 18.4856 30.9826 0 0 0 
730 21 1 1.94073 19.0007 29.6797 0 0 0 
731 21 1 5.15175 18.8938 26.9111 0 0 0 
732 21 2 6.28736 18.0577 28.5482 0 0 0 
733 21 2 5.38084 17.5342 30.6786 0 0 0 
734 21 2 4.59747 17.1966 33.0263 0 0 0 
735 21 2 2.83888 17.2422 34.6234 0 0 0 
736 21 2 53.0861 17.9463 33.7933 -1 0 0 
737 21 2 52.7599 18.7899 31.6649 -1 0 0 
738 21 2 53.6917 19.4293 29.5122 -1 0 0 
739 21 1 2.83369 19.4729 27.4061 0 0 0 
740 21 1 3.91635 19.4109 26.5098 0 0 0 
741 21 1 3.81958 20.0422 25.2736 0 0 0 
742 21 1 4.94364 20.0185 24.3889 0 0 0 
743 21 1 4.77809 20.5003 23.0958 0 0 0 
744 21 1 5.8327 20.4018 22.1752 0 0 0 
745 21 1 7.09333 19.8809 22.5928 0 0 0 