ITEM: TIMESTEP
0
ITEM: NUMBER OF ATOMS
36864
ITEM: BOX BOUNDS xy xz yz pp pp pp
0.0000000000000000e+00 6.0592154000000001e+01 5.7627459999999999e+00
0.0000000000000000e+00 8.8797443999999999e+01 4.7014079999999998e+00
0.0000000000000000e+00 1.1299516600000000e+02 2.6864975000000001e+01
ITEM: ATOMS id mol type x y z ix iy iz 
1 1 1 4.7123 3.21182 0.23125 0 0 0 
2 1 1 3.72112 3.21928 1.22694 0 0 0 
3 1 1 3.94527 2.57183 2.4539 0 0 0 
4 1 1 2.95518 2.58375 3.45129 0 0 0 
5 1 1 3.17813 1.94239 4.68258 0 0 0 
6 1 1 2.18059 1.95079 5.67072 0 0 0 
7 1 1 0.963034 2.60783 5.43663 0 0 0 
8 1 1 0.738981 3.25391 4.21228 0 0 0 
9 1 1 1.72981 3.24217 3.21603 0 0 0 
10 1 1 1.50552 3.88772 1.98886 0 0 0 
11 1 1 9.19059 30.727 112.001 0 0 -1 
12 1 2 5.6539 2.70184 0.40869 0 0 0 
13 1 2 4.88706 2.06219 2.63219 0 0 0 
14 1 2 4.11973 1.43681 4.87438 0 0 0 
15 1 2 8.11168 63.3791 6.61669 0 -1 0 
16 1 2 50.3223 2.61889 6.2027 -1 0 0 
17 1 2 49.9229 3.75918 4.03886 -1 0 0 
18 1 2 0.56386 4.39697 1.81025 0 0 0 
19 1 1 6.97545 31.3947 112.764 0 0 -1 
20 1 1 7.96663 31.3873 111.768 0 0 -1 
21 1 1 7.74247 32.0347 110.541 0 0 -1 
22 1 1 8.73256 32.0228 109.544 0 0 -1 
23 1 1 8.50962 32.6641 108.313 0 0 -1 
24 1 1 9.50715 32.6557 107.324 0 0 -1 
25 1 1 10.7247 31.9987 107.559 0 0 -1 
26 1 1 10.9488 31.3526 108.783 0 0 -1 
27 1 1 9.95794 31.3644 109.779 0 0 -1 
28 1 1 10.1822 30.7188 111.006 0 0 -1 
29 1 1 2.49714 3.87953 0.993921 0 0 0 
30 1 2 6.03385 31.9047 112.586 0 0 -1 
31 1 2 6.80069 32.5443 110.363 0 0 -1 
32 1 2 7.56803 33.1697 108.121 0 0 -1 
33 1 2 9.33882 33.1599 106.378 0 0 -1 
34 1 2 11.4935 31.9876 106.792 0 0 -1 
35 1 2 11.8928 30.8473 108.956 0 0 -1 
36 1 2 11.1239 30.2096 111.185 0 0 -1 
37 2 1 59.3732 88.3671 112.445 -1 -1 -1 
38 2 1 54.8944 61.3908 0.832398 -1 -1 0 
39 2 1 53.9019 60.8498 1.66591 -1 -1 0 
40 2 1 54.125 60.7343 3.04767 -1 -1 0 
41 2 1 53.1322 60.1896 3.87918 -1 -1 0 
42 2 1 53.3571 60.069 5.25798 -1 -1 0 
43 2 1 54.5763 60.4915 5.81117 -1 -1 0 
44 2 1 55.5734 61.0349 4.98498 -1 -1 0 
45 2 1 55.3506 61.1604 3.60186 -1 -1 0 
46 2 1 6.21361 61.7061 2.76785 0 -1 0 
47 2 1 54.602 26.9764 111.61 -1 0 -1 
48 2 2 58.4315 88.0334 112.021 -1 -1 -1 
49 2 2 52.9602 60.5174 1.24073 -1 -1 0 
50 2 2 52.1886 59.8574 3.45972 -1 -1 0 
51 2 2 52.5877 59.6423 5.89239 -1 -1 0 
52 2 2 54.7498 60.3951 6.8784 -1 -1 0 
53 2 2 6.38767 61.3551 5.42048 0 -1 0 
54 2 2 7.15569 62.0383 3.19271 0 -1 0 
55 2 1 1.21899 0.430305 0.550229 0 0 0 
56 2 1 5.69772 27.4066 112.163 0 0 -1 
57 2 1 6.69027 27.9476 111.329 0 0 -1 
58 2 1 6.46717 28.0632 109.947 0 0 -1 
59 2 1 7.45991 28.6078 109.116 0 0 -1 
60 2 1 7.23502 28.7285 107.737 0 0 -1 
61 2 1 6.01588 28.3059 107.184 0 0 -1 
62 2 1 5.01876 27.7625 108.01 0 0 -1 
63 2 1 5.24158 27.637 109.393 0 0 -1 
64 2 1 54.3785 27.0914 110.227 -1 0 -1 
65 2 1 5.99016 61.8211 1.38509 0 -1 0 
66 2 2 2.16067 0.764069 0.974489 0 0 0 
67 2 2 7.63191 28.2801 111.754 0 0 -1 
68 2 2 8.40355 28.94 109.535 0 0 -1 
69 2 2 8.00443 29.1551 107.103 0 0 -1 
70 2 2 5.84235 28.4024 106.117 0 0 -1 
71 2 2 54.2045 27.4423 107.575 -1 0 -1 
72 2 2 53.4365 26.7591 109.802 -1 0 -1 
73 3 1 5.29997 6.56994 14.3556 0 0 0 
74 3 1 4.3088 6.5774 15.3513 0 0 0 
75 3 1 4.53295 5.92995 16.5783 0 0 0 
76 3 1 3.54286 5.94187 17.5757 0 0 0 
77 3 1 3.7658 5.30051 18.807 0 0 0 
78 3 1 2.76827 5.30891 19.7951 0 0 0 
79 3 1 1.55071 5.96595 19.561 0 0 0 
80 3 1 1.32666 6.61204 18.3367 0 0 0 
81 3 1 2.31748 6.60029 17.3404 0 0 0 
82 3 1 2.0932 7.24584 16.1133 0 0 0 
83 3 1 5.07686 7.22016 13.1304 0 0 0 
84 3 2 6.24158 6.05997 14.5331 0 0 0 
85 3 2 5.47474 5.42031 16.7566 0 0 0 
86 3 2 4.70741 4.79493 18.9988 0 0 0 
87 3 2 8.69935 66.7372 20.7411 0 -1 0 
88 3 2 50.9099 5.97702 20.3271 -1 0 0 
89 3 2 50.5106 7.11731 18.1633 -1 0 0 
90 3 2 1.15154 7.75509 15.9346 0 0 0 
91 3 1 2.86171 7.88784 13.8932 0 0 0 
92 3 1 3.8529 7.8804 12.8974 0 0 0 
93 3 1 3.62874 8.52784 11.6705 0 0 0 
94 3 1 4.61883 8.51592 10.6731 0 0 0 
95 3 1 4.39588 9.1573 9.44181 0 0 0 
96 3 1 5.39342 9.14888 8.45369 0 0 0 
97 3 1 6.61099 8.49185 8.68776 0 0 0 
98 3 1 6.83503 7.84576 9.91211 0 0 0 
99 3 1 5.84421 7.85751 10.9084 0 0 0 
100 3 1 6.06849 7.21195 12.1355 0 0 0 
101 3 1 3.08481 7.23765 15.1183 0 0 0 
102 3 2 1.92012 8.39782 13.7157 0 0 0 
103 3 2 2.68696 9.03748 11.4922 0 0 0 
104 3 2 3.45429 9.66286 9.25002 0 0 0 
105 3 2 5.22509 9.65302 7.50771 0 0 0 
106 3 2 7.37975 8.48078 7.9217 0 0 0 
107 3 2 7.77909 7.34049 10.0855 0 0 0 
108 3 2 7.01016 6.7027 12.3141 0 0 0 
109 4 1 55.2594 64.8603 13.5742 -1 -1 0 
110 4 1 55.4821 64.7489 14.9568 -1 -1 0 
111 4 1 54.4896 64.208 15.7903 -1 -1 0 
112 4 1 54.7127 64.0924 17.1721 -1 -1 0 
113 4 1 53.7199 63.5478 18.0036 -1 -1 0 
114 4 1 53.9448 63.4271 19.3824 -1 -1 0 
115 4 1 55.1639 63.8496 19.9356 -1 -1 0 
116 4 1 56.1611 64.393 19.1094 -1 -1 0 
117 4 1 55.9382 64.5185 17.7263 -1 -1 0 
118 4 1 6.80129 65.0642 16.8922 0 -1 0 
119 4 1 50.4883 3.46951 12.7393 -1 0 0 
120 4 2 54.3177 64.5265 13.1499 -1 -1 0 
121 4 2 53.5479 63.8755 15.3651 -1 -1 0 
122 4 2 52.7763 63.2155 17.5841 -1 -1 0 
123 4 2 53.1754 63.0005 20.0168 -1 -1 0 
124 4 2 55.3375 63.7532 21.0028 -1 -1 0 
125 4 2 6.97535 64.7132 19.5449 0 -1 0 
126 4 2 7.74336 65.3964 17.3171 0 -1 0 
127 4 1 1.80667 3.78843 14.6746 0 0 0 
128 4 1 1.58399 3.89978 13.292 0 0 0 
129 4 1 2.57654 4.44074 12.4585 0 0 0 
130 4 1 2.35344 4.55633 11.0767 0 0 0 
131 4 1 3.34617 5.10095 10.2452 0 0 0 
132 4 1 3.12129 5.22162 8.86642 0 0 0 
133 4 1 1.90215 4.79907 8.31323 0 0 0 
134 4 1 0.905025 4.25568 9.13942 0 0 0 
135 4 1 1.12785 4.13018 10.5225 0 0 0 
136 4 1 50.2648 3.58454 11.3565 -1 0 0 
137 4 1 6.57784 65.1792 15.5095 0 -1 0 
138 4 2 2.74835 4.12219 15.0989 0 0 0 
139 4 2 3.51818 4.7732 12.8837 0 0 0 
140 4 2 4.28982 5.43317 10.6647 0 0 0 
141 4 2 3.8907 5.64823 8.23201 0 0 0 
142 4 2 1.72861 4.8955 7.24599 0 0 0 
143 4 2 50.0907 3.93549 8.70391 -1 0 0 
144 4 2 49.3227 3.25228 10.9317 -1 0 0 
145 5 1 5.88765 9.92806 28.48 0 0 0 
146 5 1 4.89648 9.93552 29.4757 0 0 0 
147 5 1 5.12062 9.28807 30.7027 0 0 0 
148 5 1 4.13054 9.29999 31.7001 0 0 0 
149 5 1 4.35348 8.65863 32.9314 0 0 0 
150 5 1 3.35594 8.66703 33.9195 0 0 0 
151 5 1 2.13839 9.32407 33.6854 0 0 0 
152 5 1 1.91433 9.97016 32.4611 0 0 0 
153 5 1 2.90516 9.95841 31.4648 0 0 0 
154 5 1 2.68088 10.604 30.2377 0 0 0 
155 5 1 5.66454 10.5783 27.2548 0 0 0 
156 5 2 6.82926 9.41809 28.6575 0 0 0 
157 5 2 6.06241 8.77843 30.881 0 0 0 
158 5 2 5.29508 8.15305 33.1232 0 0 0 
159 5 2 9.28703 70.0954 34.8655 0 -1 0 
160 5 2 51.4976 9.33514 34.4515 -1 0 0 
161 5 2 51.0983 10.4754 32.2877 -1 0 0 
162 5 2 1.73921 11.1132 30.059 0 0 0 
163 5 1 3.44939 11.246 28.0176 0 0 0 
164 5 1 4.44058 11.2385 27.0218 0 0 0 
165 5 1 4.21642 11.886 25.7949 0 0 0 
166 5 1 5.20651 11.874 24.7975 0 0 0 
167 5 1 4.98356 12.5154 23.5662 0 0 0 
168 5 1 5.9811 12.507 22.5781 0 0 0 
169 5 1 7.19866 11.85 22.8122 0 0 0 
170 5 1 7.4227 11.2039 24.0365 0 0 0 
171 5 1 6.43189 11.2156 25.0328 0 0 0 
172 5 1 6.65616 10.5701 26.2599 0 0 0 
173 5 1 3.67249 10.5958 29.2427 0 0 0 
174 5 2 2.50779 11.7559 27.8401 0 0 0 
175 5 2 3.27464 12.3956 25.6166 0 0 0 
176 5 2 4.04197 13.021 23.3744 0 0 0 
177 5 2 5.81276 13.0111 21.6321 0 0 0 
178 5 2 7.96743 11.8389 22.0461 0 0 0 
179 5 2 8.36677 10.6986 24.2099 0 0 0 
180 5 2 7.59784 10.0608 26.4385 0 0 0 
181 6 1 55.8471 68.2184 27.6986 -1 -1 0 
182 6 1 56.0698 68.1071 29.0812 -1 -1 0 
183 6 1 55.0772 67.5661 29.9147 -1 -1 0 
184 6 1 55.3003 67.4505 31.2965 -1 -1 0 
185 6 1 54.3076 66.9059 32.128 -1 -1 0 
186 6 1 54.5325 66.7852 33.5068 -1 -1 0 
187 6 1 55.7516 67.2078 34.06 -1 -1 0 
188 6 1 56.7487 67.7512 33.2338 -1 -1 0 
189 6 1 56.5259 67.8767 31.8506 -1 -1 0 
190 6 1 7.38896 68.4223 31.0166 0 -1 0 
191 6 1 51.0759 6.82763 26.8637 -1 0 0 
192 6 2 54.9054 67.8846 27.2743 -1 -1 0 
193 6 2 54.1356 67.2336 29.4895 -1 -1 0 
194 6 2 53.364 66.5737 31.7085 -1 -1 0 
195 6 2 53.7631 66.3586 34.1412 -1 -1 0 
196 6 2 55.9252 67.1113 35.1272 -1 -1 0 
197 6 2 7.56303 68.0713 33.6693 0 -1 0 
198 6 2 8.33104 68.7545 31.4415 0 -1 0 
199 6 1 2.39434 7.14655 28.799 0 0 0 
200 6 1 2.17167 7.2579 27.4164 0 0 0 
201 6 1 3.16421 7.79886 26.5829 0 0 0 
202 6 1 2.94112 7.91445 25.2011 0 0 0 
203 6 1 3.93385 8.45907 24.3696 0 0 0 
204 6 1 3.70897 8.57974 22.9908 0 0 0 
205 6 1 2.48982 8.15719 22.4376 0 0 0 
206 6 1 1.4927 7.6138 23.2638 0 0 0 
207 6 1 1.71553 7.4883 24.6469 0 0 0 
208 6 1 50.8525 6.94266 25.4809 -1 0 0 
209 6 1 7.16551 68.5373 29.6339 0 -1 0 
210 6 2 3.33602 7.48031 29.2233 0 0 0 
211 6 2 4.10585 8.13132 27.0081 0 0 0 
212 6 2 4.87749 8.79129 24.7891 0 0 0 
213 6 2 4.47838 9.00635 22.3564 0 0 0 
214 6 2 2.31629 8.25363 21.3704 0 0 0 
215 6 2 50.6784 7.29361 22.8283 -1 0 0 
216 6 2 49.9104 6.61041 25.0561 -1 0 0 
217 7 1 6.47533 13.2862 42.6044 0 0 0 
218 7 1 5.48415 13.2936 43.6001 0 0 0 
219 7 1 5.7083 12.6462 44.8271 0 0 0 
220 7 1 4.71821 12.6581 45.8245 0 0 0 
221 7 1 4.94116 12.0168 47.0558 0 0 0 
222 7 1 3.94362 12.0252 48.0439 0 0 0 
223 7 1 2.72606 12.6822 47.8098 0 0 0 
224 7 1 2.50201 13.3283 46.5855 0 0 0 
225 7 1 3.49283 13.3165 45.5892 0 0 0 
226 7 1 3.26855 13.9621 44.362 0 0 0 
227 7 1 6.25221 13.9364 41.3792 0 0 0 
228 7 2 7.41693 12.7762 42.7819 0 0 0 
229 7 2 6.65009 12.1366 45.0054 0 0 0 
230 7 2 5.88276 11.5112 47.2476 0 0 0 
231 7 2 9.8747 73.4535 48.9899 0 -1 0 
232 7 2 52.0853 12.6933 48.5759 -1 0 0 
233 7 2 51.686 13.8335 46.412 -1 0 0 
234 7 2 2.32689 14.4713 44.1834 0 0 0 
235 7 1 4.03707 14.6041 42.142 0 0 0 
236 7 1 5.02825 14.5966 41.1462 0 0 0 
237 7 1 4.80409 15.2441 39.9193 0 0 0 
238 7 1 5.79418 15.2322 38.9219 0 0 0 
239 7 1 5.57124 15.8735 37.6906 0 0 0 
240 7 1 6.56877 15.8651 36.7025 0 0 0 
241 7 1 7.78634 15.2081 36.9366 0 0 0 
242 7 1 8.01038 14.562 38.1609 0 0 0 
243 7 1 7.01956 14.5738 39.1572 0 0 0 
244 7 1 7.24384 13.9282 40.3843 0 0 0 
245 7 1 4.26017 13.9539 43.3671 0 0 0 
246 7 2 3.09547 15.1141 41.9645 0 0 0 
247 7 2 3.86231 15.7537 39.741 0 0 0 
248 7 2 4.62965 16.3791 37.4988 0 0 0 
249 7 2 6.40044 16.3693 35.7565 0 0 0 
250 7 2 8.5551 15.197 36.1705 0 0 0 
251 7 2 8.95444 14.0567 38.3343 0 0 0 
252 7 2 8.18552 13.4189 40.5629 0 0 0 
253 8 1 56.4348 71.5765 41.823 -1 -1 0 
254 8 1 56.6575 71.4652 43.2056 -1 -1 0 
255 8 1 55.6649 70.9242 44.0391 -1 -1 0 
256 8 1 55.888 70.8086 45.4209 -1 -1 0 
257 8 1 54.8953 70.264 46.2524 -1 -1 0 
258 8 1 55.1202 70.1433 47.6312 -1 -1 0 
259 8 1 56.3393 70.5659 48.1844 -1 -1 0 
260 8 1 57.3364 71.1093 47.3582 -1 -1 0 
261 8 1 57.1136 71.2348 45.975 -1 -1 0 
262 8 1 7.97664 71.7804 45.141 0 -1 0 
263 8 1 51.6636 10.1858 40.9881 -1 0 0 
264 8 2 55.4931 71.2428 41.3987 -1 -1 0 
265 8 2 54.7233 70.5918 43.6139 -1 -1 0 
266 8 2 53.9516 69.9318 45.8329 -1 -1 0 
267 8 2 54.3507 69.7167 48.2656 -1 -1 0 
268 8 2 56.5128 70.4694 49.2516 -1 -1 0 
269 8 2 8.1507 71.4295 47.7937 0 -1 0 
270 8 2 8.91872 72.1127 45.5659 0 -1 0 
271 8 1 2.98202 10.5047 42.9234 0 0 0 
272 8 1 2.75934 10.616 41.5408 0 0 0 
273 8 1 3.75189 11.157 40.7073 0 0 0 
274 8 1 3.52879 11.2726 39.3255 0 0 0 
275 8 1 4.52153 11.8172 38.494 0 0 0 
276 8 1 4.29664 11.9379 37.1152 0 0 0 
277 8 1 3.0775 11.5153 36.562 0 0 0 
278 8 1 2.08038 10.9719 37.3882 0 0 0 
279 8 1 2.3032 10.8464 38.7713 0 0 0 
280 8 1 51.4402 10.3008 39.6053 -1 0 0 
281 8 1 7.75319 71.8954 43.7583 0 -1 0 
282 8 2 3.9237 10.8384 43.3477 0 0 0 
283 8 2 4.69353 11.4894 41.1325 0 0 0 
284 8 2 5.46517 12.1494 38.9135 0 0 0 
285 8 2 5.06605 12.3645 36.4808 0 0 0 
286 8 2 2.90397 11.6117 35.4948 0 0 0 
287 8 2 51.2661 10.6517 36.9527 -1 0 0 
288 8 2 50.4981 9.96853 39.1805 -1 0 0 
289 9 1 7.063 16.6443 56.7288 0 0 0 
290 9 1 6.07183 16.6518 57.7245 0 0 0 
291 9 1 6.29597 16.0043 58.9515 0 0 0 
292 9 1 5.30589 16.0162 59.9489 0 0 0 
293 9 1 5.52883 15.3749 61.1802 0 0 0 
294 9 1 4.53129 15.3833 62.1683 0 0 0 
295 9 1 3.31374 16.0403 61.9342 0 0 0 
296 9 1 3.08968 16.6864 60.7099 0 0 0 
297 9 1 4.08051 16.6747 59.7136 0 0 0 
298 9 1 3.85623 17.3202 58.4864 0 0 0 
299 9 1 6.83989 17.2945 55.5036 0 0 0 
300 9 2 8.00461 16.1343 56.9063 0 0 0 
301 9 2 7.23776 15.4947 59.1298 0 0 0 
302 9 2 6.47043 14.8693 61.372 0 0 0 
303 9 2 10.4624 76.8116 63.1143 0 -1 0 
304 9 2 52.673 16.0514 62.7003 -1 0 0 
305 9 2 52.2736 17.1917 60.5364 -1 0 0 
306 9 2 2.91456 17.8295 58.3078 0 0 0 
307 9 1 4.62474 17.9622 56.2664 0 0 0 
308 9 1 5.61593 17.9548 55.2706 0 0 0 
309 9 1 5.39177 18.6022 54.0437 0 0 0 
310 9 1 6.38186 18.5903 53.0463 0 0 0 
311 9 1 6.15891 19.2317 51.815 0 0 0 
312 9 1 7.15645 19.2232 50.8269 0 0 0 
313 9 1 8.37401 18.5662 51.061 0 0 0 
314 9 1 8.59805 17.9201 52.2853 0 0 0 
315 9 1 7.60724 17.9319 53.2816 0 0 0 
316 9 1 7.83152 17.2863 54.5087 0 0 0 
317 9 1 4.84784 17.312 57.4915 0 0 0 
318 9 2 3.68315 18.4722 56.0889 0 0 0 
319 9 2 4.44999 19.1118 53.8654 0 0 0 
320 9 2 5.21732 19.7372 51.6232 0 0 0 
321 9 2 6.98811 19.7274 49.8809 0 0 0 
322 9 2 9.14278 18.5551 50.2949 0 0 0 
323 9 2 9.54212 17.4149 52.4587 0 0 0 
324 9 2 8.77319 16.7771 54.6873 0 0 0 
325 10 1 57.0225 74.9346 55.9474 -1 -1 0 
326 10 1 57.2451 74.8233 57.33 -1 -1 0 
327 10 1 56.2526 74.2823 58.1635 -1 -1 0 
328 10 1 56.4757 74.1667 59.5453 -1 -1 0 
329 10 1 55.483 73.6221 60.3768 -1 -1 0 
330 10 1 55.7078 73.5015 61.7556 -1 -1 0 
331 10 1 56.927 73.924 62.3088 -1 -1 0 
332 10 1 57.9241 74.4674 61.4826 -1 -1 0 
333 10 1 57.7013 74.5929 60.0994 -1 -1 0 
334 10 1 8.56431 75.1385 59.2654 0 -1 0 
335 10 1 52.2513 13.5439 55.1125 -1 0 0 
336 10 2 56.0808 74.6009 55.5231 -1 -1 0 
337 10 2 55.3109 73.9499 57.7383 -1 -1 0 
338 10 2 54.5393 73.2899 59.9573 -1 -1 0 
339 10 2 54.9384 73.0748 62.39 -1 -1 0 
340 10 2 57.1005 73.8276 63.376 -1 -1 0 
341 10 2 8.73838 74.7876 61.9181 0 -1 0 
342 10 2 9.50639 75.4708 59.6903 0 -1 0 
343 10 1 3.5697 13.8628 57.0478 0 0 0 
344 10 1 3.34702 13.9741 55.6652 0 0 0 
345 10 1 4.33956 14.5151 54.8317 0 0 0 
346 10 1 4.11647 14.6307 53.4499 0 0 0 
347 10 1 5.1092 15.1753 52.6184 0 0 0 
348 10 1 4.88432 15.296 51.2396 0 0 0 
349 10 1 3.66518 14.8734 50.6864 0 0 0 
350 10 1 2.66805 14.33 51.5126 0 0 0 
351 10 1 2.89088 14.2045 52.8957 0 0 0 
352 10 1 52.0278 13.6589 53.7297 -1 0 0 
353 10 1 8.34087 75.2536 57.8827 0 -1 0 
354 10 2 4.51137 14.1966 57.4721 0 0 0 
355 10 2 5.28121 14.8476 55.2569 0 0 0 
356 10 2 6.05284 15.5075 53.0379 0 0 0 
357 10 2 5.65373 15.7226 50.6052 0 0 0 
358 10 2 3.49164 14.9699 49.6192 0 0 0 
359 10 2 51.8538 14.0099 51.0771 -1 0 0 
360 10 2 51.0858 13.3266 53.3049 -1 0 0 
361 11 1 7.65068 20.0024 70.8532 0 0 0 
362 11 1 6.6595 20.0099 71.8489 0 0 0 
363 11 1 6.88365 19.3624 73.0759 0 0 0 
364 11 1 5.89356 19.3744 74.0733 0 0 0 
365 11 1 6.11651 18.733 75.3046 0 0 0 
366 11 1 5.11897 18.7414 76.2927 0 0 0 
367 11 1 3.90141 19.3984 76.0586 0 0 0 
368 11 1 3.67736 20.0445 74.8343 0 0 0 
369 11 1 4.66819 20.0328 73.838 0 0 0 
370 11 1 4.4439 20.6783 72.6108 0 0 0 
371 11 1 7.42757 20.6526 69.628 0 0 0 
372 11 2 8.59228 19.4925 71.0307 0 0 0 
373 11 2 7.82544 18.8528 73.2542 0 0 0 
374 11 2 7.05811 18.2274 75.4964 0 0 0 
375 11 2 11.0501 80.1697 77.2387 0 -1 0 
376 11 2 53.2606 19.4095 76.8247 -1 0 0 
377 11 2 52.8613 20.5498 74.6608 -1 0 0 
378 11 2 3.50224 21.1876 72.4322 0 0 0 
379 11 1 5.21242 21.3203 70.3908 0 0 0 
380 11 1 6.2036 21.3129 69.395 0 0 0 
381 11 1 5.97944 21.9603 68.1681 0 0 0 
382 11 1 6.96954 21.9484 67.1707 0 0 0 
383 11 1 6.74659 22.5898 65.9394 0 0 0 
384 11 1 7.74413 22.5814 64.9513 0 0 0 
385 11 1 8.96169 21.9243 65.1853 0 0 0 
386 11 1 9.18573 21.2782 66.4097 0 0 0 
387 11 1 8.19492 21.29 67.406 0 0 0 
388 11 1 8.41919 20.6444 68.6331 0 0 0 
389 11 1 5.43552 20.6701 71.6159 0 0 0 
390 11 2 4.27082 21.8303 70.2133 0 0 0 
391 11 2 5.03767 22.47 67.9898 0 0 0 
392 11 2 5.805 23.0953 65.7476 0 0 0 
393 11 2 7.57579 23.0855 64.0053 0 0 0 
394 11 2 9.73045 21.9133 64.4193 0 0 0 
395 11 2 10.1298 20.773 66.5831 0 0 0 
396 11 2 9.36087 20.1352 68.8117 0 0 0 
397 12 1 57.6101 78.2928 70.0717 -1 -1 0 
398 12 1 57.8328 78.1814 71.4544 -1 -1 0 
399 12 1 56.8403 77.6405 72.2879 -1 -1 0 
400 12 1 57.0634 77.5249 73.6696 -1 -1 0 
401 12 1 56.0706 76.9802 74.5012 -1 -1 0 
402 12 1 56.2955 76.8596 75.88 -1 -1 0 
403 12 1 57.5147 77.2821 76.4331 -1 -1 0 
404 12 1 58.5118 77.8255 75.607 -1 -1 0 
405 12 1 58.289 77.951 74.2238 -1 -1 0 
406 12 1 9.15199 78.4967 73.3898 0 -1 0 
407 12 1 52.839 16.902 69.2369 -1 0 0 
408 12 2 56.6685 77.959 69.6475 -1 -1 0 
409 12 2 55.8986 77.308 71.8627 -1 -1 0 
410 12 2 55.127 76.648 74.0817 -1 -1 0 
411 12 2 55.5261 76.433 76.5144 -1 -1 0 
412 12 2 57.6882 77.1857 77.5004 -1 -1 0 
413 12 2 9.32605 78.1457 76.0425 0 -1 0 
414 12 2 10.0941 78.8289 73.8147 0 -1 0 
415 12 1 4.15737 17.2209 71.1722 0 0 0 
416 12 1 3.9347 17.3323 69.7896 0 0 0 
417 12 1 4.92724 17.8732 68.9561 0 0 0 
418 12 1 4.70415 17.9888 67.5743 0 0 0 
419 12 1 5.69688 18.5334 66.7428 0 0 0 
420 12 1 5.47199 18.6541 65.364 0 0 0 
421 12 1 4.25285 18.2316 64.8108 0 0 0 
422 12 1 3.25573 17.6882 65.637 0 0 0 
423 12 1 3.47855 17.5627 67.0201 0 0 0 
424 12 1 52.6155 17.017 67.8541 -1 0 0 
425 12 1 8.92854 78.6117 72.0071 0 -1 0 
426 12 2 5.09905 17.5547 71.5965 0 0 0 
427 12 2 5.86888 18.2057 69.3812 0 0 0 
428 12 2 6.64052 18.8657 67.1623 0 0 0 
429 12 2 6.24141 19.0807 64.7296 0 0 0 
430 12 2 4.07932 18.328 63.7436 0 0 0 
431 12 2 52.4415 17.368 65.2015 -1 0 0 
432 12 2 51.6734 16.6848 67.4293 -1 0 0 
433 13 1 8.23835 23.3606 84.9776 0 0 0 
434 13 1 7.24718 23.368 85.9733 0 0 0 
435 13 1 7.47133 22.7206 87.2003 0 0 0 
436 13 1 6.48124 22.7325 88.1977 0 0 0 
437 13 1 6.70418 22.0911 89.429 0 0 0 
438 13 1 5.70665 22.0995 90.4171 0 0 0 
439 13 1 4.48909 22.7566 90.183 0 0 0 
440 13 1 4.26504 23.4026 88.9587 0 0 0 
441 13 1 5.25586 23.3909 87.9624 0 0 0 
442 13 1 5.03158 24.0365 86.7352 0 0 0 
443 13 1 8.01524 24.0108 83.7524 0 0 0 
444 13 2 9.17996 22.8506 85.1551 0 0 0 
445 13 2 8.41312 22.2109 87.3786 0 0 0 
446 13 2 7.64579 21.5855 89.6208 0 0 0 
447 13 2 11.6377 83.5279 91.3631 0 -1 0 
448 13 2 53.8483 22.7676 90.9491 -1 0 0 
449 13 2 53.449 23.9079 88.7852 -1 0 0 
450 13 2 4.08992 24.5457 86.5566 0 0 0 
451 13 1 5.80009 24.6784 84.5152 0 0 0 
452 13 1 6.79128 24.671 83.5194 0 0 0 
453 13 1 6.56712 25.3184 82.2925 0 0 0 
454 13 1 7.55721 25.3065 81.2951 0 0 0 
455 13 1 7.33426 25.9479 80.0638 0 0 0 
456 13 1 8.3318 25.9395 79.0757 0 0 0 
457 13 1 9.54937 25.2825 79.3097 0 0 0 
458 13 1 9.77341 24.6364 80.5341 0 0 0 
459 13 1 8.78259 24.6481 81.5304 0 0 0 
460 13 1 9.00687 24.0026 82.7575 0 0 0 
461 13 1 6.02319 24.0283 85.7403 0 0 0 
462 13 2 4.8585 25.1884 84.3377 0 0 0 
463 13 2 5.62534 25.8281 82.1142 0 0 0 
464 13 2 6.39267 26.4535 79.872 0 0 0 
465 13 2 8.16347 26.4436 78.1297 0 0 0 
466 13 2 10.3181 25.2714 78.5437 0 0 0 
467 13 2 10.7175 24.1311 80.7075 0 0 0 
468 13 2 9.94854 23.4933 82.9361 0 0 0 
469 14 1 58.1978 81.6509 84.1961 -1 -1 0 
470 14 1 58.4205 81.5395 85.5788 -1 -1 0 
471 14 1 57.4279 80.9986 86.4123 -1 -1 0 
472 14 1 57.651 80.883 87.794 -1 -1 0 
473 14 1 56.6583 80.3384 88.6255 -1 -1 0 
474 14 1 56.8832 80.2177 90.0044 -1 -1 0 
475 14 1 58.1023 80.6402 90.5575 -1 -1 0 
476 14 1 59.0995 81.1836 89.7314 -1 -1 0 
477 14 1 58.8766 81.3091 88.3482 -1 -1 0 
478 14 1 9.73967 81.8548 87.5142 0 -1 0 
479 14 1 53.4266 20.2601 83.3613 -1 0 0 
480 14 2 57.2561 81.3171 83.7719 -1 -1 0 
481 14 2 56.4863 80.6661 85.9871 -1 -1 0 
482 14 2 55.7147 80.0061 88.2061 -1 -1 0 
483 14 2 56.1138 79.7911 90.6388 -1 -1 0 
484 14 2 58.2759 80.5438 91.6248 -1 -1 0 
485 14 2 9.91373 81.5038 90.1669 0 -1 0 
486 14 2 10.6817 82.187 87.9391 0 -1 0 
487 14 1 4.74505 20.579 85.2966 0 0 0 
488 14 1 4.52237 20.6904 83.914 0 0 0 
489 14 1 5.51492 21.2313 83.0805 0 0 0 
490 14 1 5.29182 21.3469 81.6987 0 0 0 
491 14 1 6.28455 21.8916 80.8672 0 0 0 
492 14 1 6.05967 22.0122 79.4884 0 0 0 
493 14 1 4.84053 21.5897 78.9352 0 0 0 
494 14 1 3.84341 21.0463 79.7614 0 0 0 
495 14 1 4.06623 20.9208 81.1445 0 0 0 
496 14 1 53.2032 20.3751 81.9785 -1 0 0 
497 14 1 9.51622 81.9698 86.1315 0 -1 0 
498 14 2 5.68673 20.9128 85.7209 0 0 0 
499 14 2 6.45656 21.5638 83.5056 0 0 0 
500 14 2 7.2282 22.2238 81.2867 0 0 0 
501 14 2 6.82908 22.4388 78.854 0 0 0 
502 14 2 4.66699 21.6861 77.868 0 0 0 
503 14 2 53.0291 20.7261 79.3259 -1 0 0 
504 14 2 52.2611 20.0429 81.5537 -1 0 0 
505 15 1 8.82603 26.7187 99.102 0 0 0 
506 15 1 7.83486 26.7261 100.098 0 0 0 
507 15 1 8.059 26.0787 101.325 0 0 0 
508 15 1 7.06892 26.0906 102.322 0 0 0 
509 15 1 7.29186 25.4492 103.553 0 0 0 
510 15 1 6.29432 25.4576 104.541 0 0 0 
511 15 1 5.07677 26.1147 104.307 0 0 0 
512 15 1 4.85271 26.7608 103.083 0 0 0 
513 15 1 5.84354 26.749 102.087 0 0 0 
514 15 1 5.61926 27.3946 100.86 0 0 0 
515 15 1 8.60292 27.3689 97.8768 0 0 0 
516 15 2 9.76764 26.2087 99.2795 0 0 0 
517 15 2 9.00079 25.569 101.503 0 0 0 
518 15 2 8.23346 24.9437 103.745 0 0 0 
519 15 2 12.2254 86.886 105.487 0 -1 0 
520 15 2 54.436 26.1257 105.073 -1 0 0 
521 15 2 54.0367 27.266 102.91 -1 0 0 
522 15 2 4.67759 27.9038 100.681 0 0 0 
523 15 1 6.38777 28.0366 98.6395 0 0 0 
524 15 1 7.37896 28.0291 97.6438 0 0 0 
525 15 1 7.1548 28.6766 96.4169 0 0 0 
526 15 1 8.14489 28.6647 95.4195 0 0 0 
527 15 1 7.92194 29.306 94.1882 0 0 0 
528 15 1 8.91948 29.2976 93.2001 0 0 0 
529 15 1 10.137 28.6406 93.4341 0 0 0 
530 15 1 10.3611 27.9945 94.6585 0 0 0 
531 15 1 9.37027 28.0062 95.6547 0 0 0 
532 15 1 9.59454 27.3607 96.8819 0 0 0 
533 15 1 6.61087 27.3864 99.8647 0 0 0 
534 15 2 5.44617 28.5466 98.4621 0 0 0 
535 15 2 6.21302 29.1862 96.2386 0 0 0 
536 15 2 6.98035 29.8116 93.9964 0 0 0 
537 15 2 8.75114 29.8018 92.2541 0 0 0 
538 15 2 10.9058 28.6295 92.6681 0 0 0 
539 15 2 11.3051 27.4892 94.8319 0 0 0 
540 15 2 10.5362 26.8514 97.0605 0 0 0 
541 16 1 58.7855 85.009 98.3205 -1 -1 0 
542 16 1 59.0082 84.8977 99.7032 -1 -1 0 
543 16 1 58.0156 84.3567 100.537 -1 -1 0 
544 16 1 58.2387 84.2411 101.918 -1 -1 0 
545 16 1 57.246 83.6965 102.75 -1 -1 0 
546 16 1 57.4709 83.5758 104.129 -1 -1 0 
547 16 1 58.69 83.9984 104.682 -1 -1 0 
548 16 1 59.6871 84.5418 103.856 -1 -1 0 
549 16 1 59.4643 84.6673 102.473 -1 -1 0 
550 16 1 10.3273 85.2129 101.639 0 -1 0 
551 16 1 54.0143 23.6182 97.4857 -1 0 0 
552 16 2 57.8438 84.6753 97.8963 -1 -1 0 
553 16 2 57.074 84.0242 100.112 -1 -1 0 
554 16 2 56.3023 83.3643 102.33 -1 -1 0 
555 16 2 56.7015 83.1492 104.763 -1 -1 0 
556 16 2 58.8635 83.9019 105.749 -1 -1 0 
557 16 2 10.5014 84.862 104.291 0 -1 0 
558 16 2 11.2694 85.5452 102.063 0 -1 0 
559 16 1 5.33272 23.9372 99.421 0 0 0 
560 16 1 5.11005 24.0485 98.0384 0 0 0 
561 16 1 6.10259 24.5895 97.2049 0 0 0 
562 16 1 5.8795 24.7051 95.8231 0 0 0 
563 16 1 6.87223 25.2497 94.9916 0 0 0 
564 16 1 6.64735 25.3704 93.6128 0 0 0 
565 16 1 5.4282 24.9478 93.0596 0 0 0 
566 16 1 4.43108 24.4044 93.8858 0 0 0 
567 16 1 4.65391 24.2789 95.2689 0 0 0 
568 16 1 53.7909 23.7333 96.1029 -1 0 0 
569 16 1 10.1039 85.3279 100.256 0 -1 0 
570 16 2 6.2744 24.2709 99.8453 0 0 0 
571 16 2 7.04423 24.9219 97.63 0 0 0 
572 16 2 7.81587 25.5819 95.411 0 0 0 
573 16 2 7.41676 25.797 92.9784 0 0 0 
574 16 2 5.25467 25.0442 91.9924 0 0 0 
575 16 2 53.6168 24.0842 93.4503 -1 0 0 
576 16 2 52.8488 23.401 95.6781 -1 0 0 
577 17 1 5.43264 10.9534 0.23125 0 0 0 
578 17 1 4.44147 10.9608 1.22694 0 0 0 
579 17 1 4.66561 10.3134 2.4539 0 0 0 
580 17 1 3.67553 10.3253 3.45129 0 0 0 
581 17 1 3.89847 9.68395 4.68258 0 0 0 
582 17 1 2.90093 9.69235 5.67072 0 0 0 
583 17 1 1.68338 10.3494 5.43663 0 0 0 
584 17 1 1.45932 10.9955 4.21228 0 0 0 
585 17 1 2.45015 10.9837 3.21603 0 0 0 
586 17 1 2.22587 11.6293 1.98886 0 0 0 
587 17 1 9.91094 38.4686 112.001 0 0 -1 
588 17 2 6.37425 10.4434 0.40869 0 0 0 
589 17 2 5.6074 9.80375 2.63219 0 0 0 
590 17 2 4.84007 9.17837 4.87438 0 0 0 
591 17 2 3.06927 9.18821 6.61669 0 0 0 
592 17 2 51.0426 10.3605 6.2027 -1 0 0 
593 17 2 50.6433 11.5007 4.03886 -1 0 0 
594 17 2 1.2842 12.1385 1.81025 0 0 0 
595 17 1 7.69579 39.1362 112.764 0 0 -1 
596 17 1 8.68697 39.1288 111.768 0 0 -1 
597 17 1 8.46282 39.7762 110.541 0 0 -1 
598 17 1 9.45291 39.7643 109.544 0 0 -1 
599 17 1 9.22996 40.4057 108.313 0 0 -1 
600 17 1 10.2275 40.3973 107.324 0 0 -1 
601 17 1 11.4451 39.7403 107.559 0 0 -1 
602 17 1 11.6691 39.0942 108.783 0 0 -1 
603 17 1 10.6783 39.1059 109.779 0 0 -1 
604 17 1 10.9026 38.4604 111.006 0 0 -1 
605 17 1 3.21748 11.6211 0.993921 0 0 0 
606 17 2 6.75419 39.6462 112.586 0 0 -1 
607 17 2 7.52104 40.2859 110.363 0 0 -1 
608 17 2 8.28837 40.9113 108.121 0 0 -1 
609 17 2 10.0592 40.9014 106.378 0 0 -1 
610 17 2 12.2138 39.7292 106.792 0 0 -1 
611 17 2 12.6132 38.5889 108.956 0 0 -1 
612 17 2 11.8442 37.9511 111.185 0 0 -1 
613 18 1 54.3308 34.1762 112.445 -1 0 -1 
614 18 1 49.852 7.1999 0.832398 -1 0 0 
615 18 1 48.8595 6.65894 1.66591 -1 0 0 
616 18 1 49.0826 6.54335 3.04767 -1 0 0 
617 18 1 48.0898 5.99872 3.87918 -1 0 0 
618 18 1 48.3147 5.87805 5.25798 -1 0 0 
619 18 1 49.5339 6.3006 5.81117 -1 0 0 
620 18 1 50.531 6.844 4.98498 -1 0 0 
621 18 1 50.3082 6.9695 3.60186 -1 0 0 
622 18 1 1.17121 7.51514 2.76785 0 0 0 
623 18 1 55.3223 34.7179 111.61 -1 0 -1 
624 18 2 53.3891 33.8425 112.021 -1 0 -1 
625 18 2 47.9178 6.32648 1.24073 -1 0 0 
626 18 2 47.1462 5.6665 3.45972 -1 0 0 
627 18 2 47.5453 5.45144 5.89239 -1 0 0 
628 18 2 49.7074 6.20417 6.8784 -1 0 0 
629 18 2 1.34527 7.16419 5.42048 0 0 0 
630 18 2 2.11329 7.84739 3.1927 0 0 0 
631 18 1 1.93934 8.17186 0.550229 0 0 0 
632 18 1 6.41807 35.1482 112.163 0 0 -1 
633 18 1 7.41061 35.6892 111.329 0 0 -1 
634 18 1 7.18752 35.8047 109.947 0 0 -1 
635 18 1 8.18025 36.3494 109.116 0 0 -1 
636 18 1 7.95536 36.47 107.737 0 0 -1 
637 18 1 6.73622 36.0475 107.184 0 0 -1 
638 18 1 5.7391 35.5041 108.01 0 0 -1 
639 18 1 5.96192 35.3786 109.393 0 0 -1 
640 18 1 55.0989 34.8329 110.227 -1 0 -1 
641 18 1 0.947759 7.63017 1.38509 0 0 0 
642 18 2 2.88101 8.50563 0.974489 0 0 0 
643 18 2 8.35225 36.0216 111.754 0 0 -1 
644 18 2 9.12389 36.6816 109.535 0 0 -1 
645 18 2 8.72478 36.8966 107.103 0 0 -1 
646 18 2 6.56269 36.1439 106.117 0 0 -1 
647 18 2 54.9248 35.1839 107.575 -1 0 -1 
648 18 2 54.1568 34.5007 109.802 -1 0 -1 
649 19 1 6.02032 14.3115 14.3556 0 0 0 
650 19 1 5.02914 14.319 15.3513 0 0 0 
651 19 1 5.25329 13.6715 16.5783 0 0 0 
652 19 1 4.2632 13.6834 17.5757 0 0 0 
653 19 1 4.48615 13.0421 18.807 0 0 0 
654 19 1 3.48861 13.0505 19.7951 0 0 0 
655 19 1 2.27105 13.7075 19.561 0 0 0 
656 19 1 2.047 14.3536 18.3367 0 0 0 
657 19 1 3.03782 14.3418 17.3404 0 0 0 
658 19 1 2.81354 14.9874 16.1133 0 0 0 
659 19 1 5.79721 14.9617 13.1304 0 0 0 
660 19 2 6.96192 13.8015 14.5331 0 0 0 
661 19 2 6.19508 13.1619 16.7566 0 0 0 
662 19 2 5.42775 12.5365 18.9988 0 0 0 
663 19 2 3.65695 12.5463 20.7411 0 0 0 
664 19 2 51.6303 13.7186 20.3271 -1 0 0 
665 19 2 51.231 14.8589 18.1633 -1 0 0 
666 19 2 1.87188 15.4966 15.9346 0 0 0 
667 19 1 3.58206 15.6294 13.8932 0 0 0 
668 19 1 4.57324 15.622 12.8974 0 0 0 
669 19 1 4.34908 16.2694 11.6705 0 0 0 
670 19 1 5.33918 16.2575 10.6731 0 0 0 
671 19 1 5.11623 16.8989 9.44181 0 0 0 
672 19 1 6.11376 16.8904 8.45369 0 0 0 
673 19 1 7.33133 16.2334 8.68776 0 0 0 
674 19 1 7.55537 15.5873 9.91211 0 0 0 
675 19 1 6.56456 15.5991 10.9084 0 0 0 
676 19 1 6.78883 14.9535 12.1355 0 0 0 
677 19 1 3.80516 14.9792 15.1183 0 0 0 
678 19 2 2.64046 16.1394 13.7157 0 0 0 
679 19 2 3.40731 16.779 11.4922 0 0 0 
680 19 2 4.17464 17.4044 9.25002 0 0 0 
681 19 2 5.94543 17.3946 7.50771 0 0 0 
682 19 2 8.10009 16.2223 7.9217 0 0 0 
683 19 2 8.49943 15.082 10.0855 0 0 0 
684 19 2 7.73051 14.4443 12.3141 0 0 0 
685 20 1 50.217 10.6694 13.5742 -1 0 0 
686 20 1 50.4397 10.558 14.9568 -1 0 0 
687 20 1 49.4472 10.0171 15.7903 -1 0 0 
688 20 1 49.6703 9.90147 17.1721 -1 0 0 
689 20 1 48.6775 9.35684 18.0036 -1 0 0 
690 20 1 48.9024 9.23617 19.3824 -1 0 0 
691 20 1 50.1215 9.65873 19.9356 -1 0 0 
692 20 1 51.1187 10.2021 19.1094 -1 0 0 
693 20 1 50.8958 10.3276 17.7263 -1 0 0 
694 20 1 1.75888 10.8733 16.8922 0 0 0 
695 20 1 51.2086 11.2111 12.7393 -1 0 0 
696 20 2 49.2753 10.3356 13.1499 -1 0 0 
697 20 2 48.5055 9.6846 15.3651 -1 0 0 
698 20 2 47.7339 9.02463 17.5841 -1 0 0 
699 20 2 48.133 8.80956 20.0168 -1 0 0 
700 20 2 50.2951 9.56229 21.0028 -1 0 0 
701 20 2 1.93295 10.5223 19.5449 0 0 0 
702 20 2 2.70096 11.2055 17.3171 0 0 0 
703 20 1 2.52701 11.53 14.6746 0 0 0 
704 20 1 2.30434 11.6413 13.292 0 0 0 
705 20 1 3.29688 12.1823 12.4585 0 0 0 
706 20 1 3.07378 12.2979 11.0767 0 0 0 
707 20 1 4.06652 12.8425 10.2452 0 0 0 
708 20 1 3.84163 12.9632 8.86642 0 0 0 
709 20 1 2.62249 12.5406 8.31323 0 0 0 
710 20 1 1.62537 11.9972 9.13942 0 0 0 
711 20 1 1.84819 11.8717 10.5225 0 0 0 
712 20 1 50.9852 11.3261 11.3565 -1 0 0 
713 20 1 1.53543 10.9883 15.5095 0 0 0 
714 20 2 3.46869 11.8637 15.0989 0 0 0 
715 20 2 4.23852 12.5148 12.8837 0 0 0 
716 20 2 5.01016 13.1747 10.6647 0 0 0 
717 20 2 4.61105 13.3898 8.23201 0 0 0 
718 20 2 2.44896 12.6371 7.24599 0 0 0 
719 20 2 50.8111 11.677 8.70391 -1 0 0 
720 20 2 50.0431 10.9938 10.9317 -1 0 0 
721 21 1 6.60799 17.6696 28.48 0 0 0 
722 21 1 5.61682 17.6771 29.4757 0 0 0 
723 21 1 5.84097 17.0296 30.7027 0 0 0 
724 21 1 4.85088 17.0415 31.7001 0 0 0 
725 21 1 5.07382 16.4002 32.9314 0 0 0 
726 21 1 4.07629 16.4086 33.9195 0 0 0 
727 21 1 2.85873 17.0656 33.6854 0 0 0 
728 21 1 2.63468 17.7117 32.4611 0 0 0 
729 21 1 3.6255 17.7 31.4648 0 0 0 
730 21 1 3.40122 18.3455 30.2377 0 0 0 
731 21 1 6.38488 18.3198 27.2548 0 0 0 
732 21 2 7.5496 17.1596 28.6575 0 0 0 
733 21 2 6.78276 16.52 30.881 0 0 0 
734 21 2 6.01543 15.8946 33.1232 0 0 0 
735 21 2 4.24463 15.9045 34.8655 0 0 0 
736 21 2 52.218 17.0767 34.4515 -1 0 0 
737 21 2 51.8186 18.217 32.2877 -1 0 0 
738 21 2 2.45955 18.8548 30.059 0 0 0 
739 21 1 4.16973 18.9875 28.0176 0 0 0 
740 21 1 5.16092 18.9801 27.0218 0 0 0 
741 21 1 4.93676 19.6275 25.7949 0 0 0 
742 21 1 5.92685 19.6156 24.7975 0 0 0 
743 21 1 5.7039 20.257 23.5662 0 0 0 
744 21 1 6.70144 20.2486 22.5781 0 0 0 
745 21 1 7.919 19.5915 22.8122 0 0 0 
746 21 1 8.14304 18.9454 24.0365 0 0 0 
747 21 1 7.15223 18.9572 25.0328 0 0 0 