ITEM: TIMESTEP
0
ITEM: NUMBER OF ATOMS
2304
ITEM: BOX BOUNDS xy xz yz pp pp pp
0.0000000000000000e+00 2.9120725000000000e+01 2.8813730000000000e+00
0.0000000000000000e+00 3.7682479000000001e+01 1.1753520000000000e+00
0.0000000000000000e+00 2.8248791000000001e+01 6.7162439999999997e+00
ITEM: ATOMS id mol type x y z ix iy iz 
1 1 1 4.7123 3.21182 0.23125 0 0 0 
2 1 1 3.72112 3.21928 1.22694 0 0 0 
3 1 1 3.94527 2.57183 2.4539 0 0 0 
4 1 1 2.95518 2.58375 3.45129 0 0 0 
5 1 1 3.17813 1.94239 4.68258 0 0 0 
6 1 1 2.18059 1.95079 5.67072 0 0 0 
7 1 1 0.963034 2.60783 5.43663 0 0 0 
8 1 1 0.738981 3.25391 4.21228 0 0 0 
9 1 1 1.72981 3.24217 3.21603 0 0 0 
10 1 1 1.50552 3.88772 1.98886 0 0 0 
11 1 1 5.66454 10.5783 27.2548 0 0 -1 
12 1 2 5.6539 2.70184 0.40869 0 0 0 
13 1 2 4.88706 2.06219 2.63219 0 0 0 
14 1 2 4.11973 1.43681 4.87438 0 0 0 
15 1 2 5.2303 32.4129 6.61669 0 -1 0 
16 1 2 25.2583 2.61889 6.2027 -1 0 0 
17 1 2 24.8589 3.75918 4.03886 -1 0 0 
18 1 2 0.56386 4.39697 1.81025 0 0 0 
19 1 1 3.44939 11.246 28.0176 0 0 -1 
20 1 1 4.44058 11.2385 27.0218 0 0 -1 
21 1 1 4.21642 11.886 25.7949 0 0 -1 
22 1 1 5.20651 11.874 24.7975 0 0 -1 
23 1 1 4.98356 12.5154 23.5662 0 0 -1 
24 1 1 5.9811 12.507 22.5781 0 0 -1 
25 1 1 7.19866 11.85 22.8122 0 0 -1 
26 1 1 7.4227 11.2039 24.0365 0 0 -1 
27 1 1 6.43189 11.2156 25.0328 0 0 -1 
28 1 1 6.65616 10.5701 26.2599 0 0 -1 
29 1 1 2.49714 3.87953 0.993922 0 0 0 
30 1 2 2.50779 11.7559 27.8401 0 0 -1 
31 1 2 3.27464 12.3956 25.6166 0 0 -1 
32 1 2 4.04197 13.021 23.3744 0 0 -1 
33 1 2 5.81276 13.0111 21.6321 0 0 -1 
34 1 2 7.96743 11.8389 22.0461 0 0 -1 
35 1 2 8.36677 10.6986 24.2099 0 0 -1 
36 1 2 7.59784 10.0608 26.4385 0 0 -1 
37 2 1 27.9017 37.2522 27.6986 -1 -1 -1 
38 2 1 26.9491 30.4246 0.832398 -1 -1 0 
39 2 1 25.9565 29.8836 1.66591 -1 -1 0 
40 2 1 26.1796 29.768 3.04767 -1 -1 0 
41 2 1 25.1869 29.2234 3.87918 -1 -1 0 
42 2 1 25.4118 29.1027 5.25798 -1 -1 0 
43 2 1 26.6309 29.5253 5.81117 -1 -1 0 
44 2 1 27.628 30.0687 4.98498 -1 -1 0 
45 2 1 27.4052 30.1942 3.60186 -1 -1 0 
46 2 1 3.33224 30.7398 2.76785 0 -1 0 
47 2 1 26.0119 6.82763 26.8637 -1 0 -1 
48 2 2 26.9601 36.9184 27.2743 -1 -1 -1 
49 2 2 25.0149 29.5512 1.24073 -1 -1 0 
50 2 2 24.2432 28.8912 3.45972 -1 -1 0 
51 2 2 24.6423 28.6761 5.89239 -1 -1 0 
52 2 2 26.8044 29.4288 6.8784 -1 -1 0 
53 2 2 3.5063 30.3889 5.42048 0 -1 0 
54 2 2 4.27432 31.0721 3.19271 0 -1 0 
55 2 1 1.21899 0.430305 0.550229 0 0 0 
56 2 1 2.17167 7.2579 27.4164 0 0 -1 
57 2 1 3.16421 7.79886 26.5829 0 0 -1 
58 2 1 2.94112 7.91445 25.2011 0 0 -1 
59 2 1 3.93385 8.45907 24.3696 0 0 -1 
60 2 1 3.70897 8.57974 22.9908 0 0 -1 
61 2 1 2.48982 8.15719 22.4376 0 0 -1 
62 2 1 1.4927 7.6138 23.2638 0 0 -1 
63 2 1 1.71553 7.4883 24.6469 0 0 -1 
64 2 1 25.7885 6.94266 25.4809 -1 0 -1 
65 2 1 3.10879 30.8548 1.38509 0 -1 0 
66 2 2 2.16067 0.764069 0.974489 0 0 0 
67 2 2 4.10585 8.13132 27.0081 0 0 -1 
68 2 2 4.87749 8.79129 24.7891 0 0 -1 
69 2 2 4.47838 9.00635 22.3564 0 0 -1 
70 2 2 2.31629 8.25363 21.3704 0 0 -1 
71 2 2 25.6144 7.29361 22.8283 -1 0 -1 
72 2 2 24.8464 6.61041 25.0561 -1 0 -1 
73 3 1 5.29997 6.56994 14.3556 0 0 0 
74 3 1 4.3088 6.5774 15.3513 0 0 0 
75 3 1 4.53295 5.92995 16.5783 0 0 0 
76 3 1 3.54286 5.94187 17.5757 0 0 0 
77 3 1 3.7658 5.30051 18.807 0 0 0 
78 3 1 2.76827 5.30891 19.7951 0 0 0 
79 3 1 1.55071 5.96595 19.561 0 0 0 
80 3 1 1.32666 6.61204 18.3367 0 0 0 
81 3 1 2.31748 6.60029 17.3404 0 0 0 
82 3 1 2.0932 7.24584 16.1133 0 0 0 
83 3 1 5.07686 7.22016 13.1304 0 0 0 
84 3 2 6.24158 6.05997 14.5331 0 0 0 
85 3 2 5.47474 5.42031 16.7566 0 0 0 
86 3 2 4.70741 4.79493 18.9988 0 0 0 
87 3 2 5.81798 35.771 20.7411 0 -1 0 
88 3 2 25.8459 5.97702 20.3271 -1 0 0 
89 3 2 25.4466 7.11731 18.1633 -1 0 0 
90 3 2 1.15154 7.75509 15.9346 0 0 0 
91 3 1 2.86171 7.88784 13.8932 0 0 0 
92 3 1 3.8529 7.8804 12.8974 0 0 0 
93 3 1 3.62874 8.52784 11.6705 0 0 0 
94 3 1 4.61883 8.51592 10.6731 0 0 0 
95 3 1 4.39588 9.1573 9.44181 0 0 0 
96 3 1 5.39342 9.14888 8.45369 0 0 0 
97 3 1 6.61099 8.49185 8.68776 0 0 0 
98 3 1 6.83503 7.84576 9.91211 0 0 0 
99 3 1 5.84421 7.85751 10.9084 0 0 0 
100 3 1 6.06849 7.21195 12.1355 0 0 0 
101 3 1 3.08481 7.23765 15.1183 0 0 0 
102 3 2 1.92012 8.39782 13.7157 0 0 0 
103 3 2 2.68696 9.03748 11.4922 0 0 0 
104 3 2 3.45429 9.66286 9.25002 0 0 0 
105 3 2 5.22509 9.65302 7.50771 0 0 0 
106 3 2 7.37975 8.48078 7.9217 0 0 0 
107 3 2 7.77909 7.34049 10.0855 0 0 0 
108 3 2 7.01016 6.7027 12.3141 0 0 0 
109 4 1 27.3141 33.894 13.5742 -1 -1 0 
110 4 1 27.5367 33.7827 14.9568 -1 -1 0 
111 4 1 26.5442 33.2417 15.7903 -1 -1 0 
112 4 1 26.7673 33.1261 17.1721 -1 -1 0 
113 4 1 25.7745 32.5815 18.0036 -1 -1 0 
114 4 1 25.9994 32.4608 19.3824 -1 -1 0 
115 4 1 27.2186 32.8834 19.9356 -1 -1 0 
116 4 1 28.2157 33.4268 19.1094 -1 -1 0 
117 4 1 27.9929 33.5523 17.7263 -1 -1 0 
118 4 1 3.91991 34.0979 16.8922 0 -1 0 
119 4 1 25.4243 3.46951 12.7393 -1 0 0 
120 4 2 26.3724 33.5603 13.1499 -1 -1 0 
121 4 2 25.6025 32.9093 15.3651 -1 -1 0 
122 4 2 24.8309 32.2493 17.5841 -1 -1 0 
123 4 2 25.23 32.0342 20.0168 -1 -1 0 
124 4 2 27.3921 32.787 21.0028 -1 -1 0 
125 4 2 4.09398 33.747 19.5449 0 -1 0 
126 4 2 4.86199 34.4302 17.3171 0 -1 0 
127 4 1 1.80667 3.78843 14.6746 0 0 0 
128 4 1 1.58399 3.89978 13.292 0 0 0 
129 4 1 2.57654 4.44074 12.4585 0 0 0 
130 4 1 2.35344 4.55633 11.0767 0 0 0 
131 4 1 3.34617 5.10095 10.2452 0 0 0 
132 4 1 3.12129 5.22162 8.86642 0 0 0 
133 4 1 1.90215 4.79907 8.31323 0 0 0 
134 4 1 0.905026 4.25568 9.13942 0 0 0 
135 4 1 1.12785 4.13018 10.5225 0 0 0 
136 4 1 25.2008 3.58454 11.3565 -1 0 0 
137 4 1 3.69646 34.213 15.5095 0 -1 0 
138 4 2 2.74835 4.12219 15.0989 0 0 0 
139 4 2 3.51818 4.7732 12.8837 0 0 0 
140 4 2 4.28982 5.43317 10.6647 0 0 0 
141 4 2 3.8907 5.64823 8.23201 0 0 0 
142 4 2 1.72861 4.8955 7.24599 0 0 0 
143 4 2 25.0267 3.93549 8.70391 -1 0 0 
144 4 2 24.2587 3.25228 10.9317 -1 0 0 
145 5 1 5.43264 10.9534 0.23125 0 0 0 
146 5 1 4.44147 10.9608 1.22694 0 0 0 
147 5 1 4.66561 10.3134 2.4539 0 0 0 
148 5 1 3.67553 10.3253 3.45129 0 0 0 
149 5 1 3.89847 9.68395 4.68258 0 0 0 
150 5 1 2.90093 9.69235 5.67072 0 0 0 
151 5 1 1.68338 10.3494 5.43663 0 0 0 
152 5 1 1.45932 10.9955 4.21228 0 0 0 
153 5 1 2.45015 10.9837 3.21603 0 0 0 
154 5 1 2.22587 11.6293 1.98886 0 0 0 
155 5 1 6.38488 18.3198 27.2548 0 0 -1 
156 5 2 6.37425 10.4434 0.40869 0 0 0 
157 5 2 5.6074 9.80375 2.63219 0 0 0 
158 5 2 4.84007 9.17837 4.87438 0 0 0 
159 5 2 3.06927 9.18821 6.61669 0 0 0 
160 5 2 25.9786 10.3605 6.2027 -1 0 0 
161 5 2 25.5793 11.5007 4.03886 -1 0 0 
162 5 2 1.2842 12.1385 1.81025 0 0 0 
163 5 1 4.16973 18.9875 28.0176 0 0 -1 
164 5 1 5.16092 18.9801 27.0218 0 0 -1 
165 5 1 4.93676 19.6275 25.7949 0 0 -1 
166 5 1 5.92685 19.6156 24.7975 0 0 -1 
167 5 1 5.7039 20.257 23.5662 0 0 -1 
168 5 1 6.70144 20.2486 22.5781 0 0 -1 
169 5 1 7.919 19.5915 22.8122 0 0 -1 
170 5 1 8.14304 18.9454 24.0365 0 0 -1 
171 5 1 7.15223 18.9572 25.0328 0 0 -1 
172 5 1 7.37651 18.3116 26.2599 0 0 -1 
173 5 1 3.21748 11.6211 0.993922 0 0 0 
174 5 2 3.22814 19.4975 27.8401 0 0 -1 
175 5 2 3.99498 20.1372 25.6166 0 0 -1 
176 5 2 4.76231 20.7625 23.3744 0 0 -1 
177 5 2 6.53311 20.7527 21.6321 0 0 -1 
178 5 2 8.68777 19.5805 22.0461 0 0 -1 
179 5 2 9.08711 18.4402 24.2099 0 0 -1 
180 5 2 8.31818 17.8024 26.4385 0 0 -1 
181 6 1 25.7407 14.0275 27.6986 -1 0 -1 
182 6 1 24.788 7.1999 0.832398 -1 0 0 
183 6 1 23.7955 6.65894 1.66591 -1 0 0 
184 6 1 24.0186 6.54335 3.04767 -1 0 0 
185 6 1 23.0258 5.99872 3.87918 -1 0 0 
186 6 1 23.2507 5.87805 5.25798 -1 0 0 
187 6 1 24.4699 6.3006 5.81117 -1 0 0 
188 6 1 25.467 6.844 4.98498 -1 0 0 
189 6 1 25.2442 6.9695 3.60186 -1 0 0 
190 6 1 1.17121 7.51514 2.76785 0 0 0 
191 6 1 26.7323 14.5692 26.8637 -1 0 -1 
192 6 2 24.799 13.6937 27.2743 -1 0 -1 
193 6 2 22.8538 6.32648 1.24073 -1 0 0 
194 6 2 22.0822 5.6665 3.45972 -1 0 0 
195 6 2 22.4813 5.45144 5.89239 -1 0 0 
196 6 2 24.6434 6.20417 6.8784 -1 0 0 
197 6 2 1.34527 7.16419 5.42048 0 0 0 
198 6 2 2.11329 7.84739 3.19271 0 0 0 
199 6 1 1.93934 8.17186 0.550229 0 0 0 
200 6 1 2.89201 14.9995 27.4164 0 0 -1 
201 6 1 3.88456 15.5404 26.5829 0 0 -1 
202 6 1 3.66146 15.656 25.2011 0 0 -1 
203 6 1 4.65419 16.2006 24.3696 0 0 -1 
204 6 1 4.42931 16.3213 22.9908 0 0 -1 
205 6 1 3.21017 15.8987 22.4376 0 0 -1 
206 6 1 2.21304 15.3554 23.2638 0 0 -1 
207 6 1 2.43587 15.2299 24.6469 0 0 -1 
208 6 1 26.5088 14.6842 25.4809 -1 0 -1 
209 6 1 0.947759 7.63017 1.38509 0 0 0 
210 6 2 2.88101 8.50563 0.974489 0 0 0 
211 6 2 4.8262 15.8729 27.0081 0 0 -1 
212 6 2 5.59784 16.5329 24.7891 0 0 -1 
213 6 2 5.19872 16.7479 22.3564 0 0 -1 
214 6 2 3.03663 15.9952 21.3704 0 0 -1 
215 6 2 26.3348 15.0352 22.8283 -1 0 -1 
216 6 2 25.5667 14.352 25.0561 -1 0 -1 
217 7 1 6.02032 14.3115 14.3556 0 0 0 
218 7 1 5.02914 14.319 15.3513 0 0 0 
219 7 1 5.25329 13.6715 16.5783 0 0 0 
220 7 1 4.2632 13.6834 17.5757 0 0 0 
221 7 1 4.48615 13.0421 18.807 0 0 0 
222 7 1 3.48861 13.0505 19.7951 0 0 0 
223 7 1 2.27105 13.7075 19.561 0 0 0 
224 7 1 2.047 14.3536 18.3367 0 0 0 
225 7 1 3.03782 14.3418 17.3404 0 0 0 
226 7 1 2.81354 14.9874 16.1133 0 0 0 
227 7 1 5.79721 14.9617 13.1304 0 0 0 
228 7 2 6.96192 13.8015 14.5331 0 0 0 
229 7 2 6.19508 13.1619 16.7566 0 0 0 
230 7 2 5.42775 12.5365 18.9988 0 0 0 
231 7 2 3.65695 12.5463 20.7411 0 0 0 
232 7 2 26.5663 13.7186 20.3271 -1 0 0 
233 7 2 26.167 14.8589 18.1633 -1 0 0 
234 7 2 1.87188 15.4966 15.9346 0 0 0 
235 7 1 3.58206 15.6294 13.8932 0 0 0 
236 7 1 4.57324 15.622 12.8974 0 0 0 
237 7 1 4.34908 16.2694 11.6705 0 0 0 
238 7 1 5.33918 16.2575 10.6731 0 0 0 
239 7 1 5.11623 16.8989 9.44181 0 0 0 
240 7 1 6.11376 16.8904 8.45369 0 0 0 
241 7 1 7.33133 16.2334 8.68776 0 0 0 
242 7 1 7.55537 15.5873 9.91211 0 0 0 
243 7 1 6.56456 15.5991 10.9084 0 0 0 
244 7 1 6.78883 14.9535 12.1355 0 0 0 
245 7 1 3.80516 14.9792 15.1183 0 0 0 
246 7 2 2.64046 16.1394 13.7157 0 0 0 
247 7 2 3.40731 16.779 11.4922 0 0 0 
248 7 2 4.17464 17.4044 9.25002 0 0 0 
249 7 2 5.94543 17.3946 7.50771 0 0 0 
250 7 2 8.10009 16.2223 7.9217 0 0 0 
251 7 2 8.49943 15.082 10.0855 0 0 0 
252 7 2 7.73051 14.4443 12.3141 0 0 0 
253 8 1 25.153 10.6694 13.5742 -1 0 0 
254 8 1 25.3757 10.558 14.9568 -1 0 0 
255 8 1 24.3832 10.0171 15.7903 -1 0 0 
256 8 1 24.6063 9.90147 17.1721 -1 0 0 
257 8 1 23.6135 9.35684 18.0036 -1 0 0 
258 8 1 23.8384 9.23617 19.3824 -1 0 0 
259 8 1 25.0575 9.65873 19.9356 -1 0 0 
260 8 1 26.0547 10.2021 19.1094 -1 0 0 
261 8 1 25.8318 10.3276 17.7263 -1 0 0 
262 8 1 1.75888 10.8733 16.8922 0 0 0 
263 8 1 26.1446 11.2111 12.7393 -1 0 0 
264 8 2 24.2113 10.3356 13.1499 -1 0 0 
265 8 2 23.4415 9.6846 15.3651 -1 0 0 
266 8 2 22.6699 9.02463 17.5841 -1 0 0 
267 8 2 23.069 8.80956 20.0168 -1 0 0 
268 8 2 25.2311 9.56229 21.0028 -1 0 0 
269 8 2 1.93295 10.5223 19.5449 0 0 0 
270 8 2 2.70096 11.2055 17.3171 0 0 0 
271 8 1 2.52701 11.53 14.6746 0 0 0 
272 8 1 2.30434 11.6413 13.292 0 0 0 
273 8 1 3.29688 12.1823 12.4585 0 0 0 
274 8 1 3.07378 12.2979 11.0767 0 0 0 
275 8 1 4.06652 12.8425 10.2452 0 0 0 
276 8 1 3.84163 12.9632 8.86642 0 0 0 
277 8 1 2.62249 12.5406 8.31323 0 0 0 
278 8 1 1.62537 11.9972 9.13942 0 0 0 
279 8 1 1.84819 11.8717 10.5225 0 0 0 
280 8 1 25.9212 11.3261 11.3565 -1 0 0 
281 8 1 1.53543 10.9883 15.5095 0 0 0 
282 8 2 3.46869 11.8637 15.0989 0 0 0 
283 8 2 4.23852 12.5148 12.8837 0 0 0 
284 8 2 5.01016 13.1747 10.6647 0 0 0 
285 8 2 4.61105 13.3898 8.23201 0 0 0 
286 8 2 2.44896 12.6371 7.24599 0 0 0 
287 8 2 25.7471 11.677 8.70391 -1 0 0 
288 8 2 24.9791 10.9938 10.9317 -1 0 0 
289 9 1 6.15298 18.6949 0.23125 0 0 0 
290 9 1 5.16181 18.7024 1.22694 0 0 0 
291 9 1 5.38596 18.0549 2.4539 0 0 0 
292 9 1 4.39587 18.0669 3.45129 0 0 0 
293 9 1 4.61881 17.4255 4.68258 0 0 0 
294 9 1 3.62128 17.4339 5.67072 0 0 0 
295 9 1 2.40372 18.0909 5.43663 0 0 0 
296 9 1 2.17967 18.737 4.21228 0 0 0 
297 9 1 3.17049 18.7253 3.21603 0 0 0 
298 9 1 2.94621 19.3708 1.98886 0 0 0 
299 9 1 7.10523 26.0614 27.2548 0 0 -1 
300 9 2 7.09459 18.185 0.40869 0 0 0 
301 9 2 6.32775 17.5453 2.63219 0 0 0 
302 9 2 5.56042 16.9199 4.87438 0 0 0 
303 9 2 3.78962 16.9298 6.61669 0 0 0 
304 9 2 26.699 18.102 6.2027 -1 0 0 
305 9 2 26.2996 19.2423 4.03886 -1 0 0 
306 9 2 2.00455 19.8801 1.81025 0 0 0 
307 9 1 4.89008 26.7291 28.0176 0 0 -1 
308 9 1 5.88126 26.7216 27.0218 0 0 -1 
309 9 1 5.6571 27.3691 25.7949 0 0 -1 
310 9 1 6.64719 27.3572 24.7975 0 0 -1 
311 9 1 6.42425 27.9985 23.5662 0 0 -1 
312 9 1 7.42178 27.9901 22.5781 0 0 -1 
313 9 1 8.63935 27.3331 22.8122 0 0 -1 
314 9 1 8.86339 26.687 24.0365 0 0 -1 
315 9 1 7.87257 26.6988 25.0328 0 0 -1 
316 9 1 8.09685 26.0532 26.2599 0 0 -1 
317 9 1 3.93782 19.3626 0.993922 0 0 0 
318 9 2 3.94848 27.2391 27.8401 0 0 -1 
319 9 2 4.71533 27.8787 25.6166 0 0 -1 
320 9 2 5.48266 28.5041 23.3744 0 0 -1 
321 9 2 7.25345 28.4943 21.6321 0 0 -1 
322 9 2 9.40811 27.322 22.0461 0 0 -1 
323 9 2 9.80745 26.1817 24.2099 0 0 -1 
324 9 2 9.03853 25.5439 26.4385 0 0 -1 
325 10 1 26.461 21.7691 27.6986 -1 0 -1 
326 10 1 25.5084 14.9415 0.832398 -1 0 0 
327 10 1 24.5158 14.4005 1.66591 -1 0 0 
328 10 1 24.7389 14.2849 3.04767 -1 0 0 
329 10 1 23.7462 13.7403 3.87918 -1 0 0 
330 10 1 23.9711 13.6196 5.25798 -1 0 0 
331 10 1 25.1902 14.0422 5.81117 -1 0 0 
332 10 1 26.1873 14.5856 4.98498 -1 0 0 
333 10 1 25.9645 14.7111 3.60186 -1 0 0 
334 10 1 1.89155 15.2567 2.76785 0 0 0 
335 10 1 27.4526 22.3108 26.8637 -1 0 -1 
336 10 2 25.5194 21.4353 27.2743 -1 0 -1 
337 10 2 23.5742 14.068 1.24073 -1 0 0 
338 10 2 22.8025 13.4081 3.45972 -1 0 0 
339 10 2 23.2017 13.193 5.89239 -1 0 0 
340 10 2 25.3637 13.9457 6.8784 -1 0 0 
341 10 2 2.06561 14.9057 5.42048 0 0 0 
342 10 2 2.83363 15.589 3.19271 0 0 0 
343 10 1 2.65968 15.9134 0.550229 0 0 0 
344 10 1 3.61235 22.741 27.4164 0 0 -1 
345 10 1 4.6049 23.282 26.5829 0 0 -1 
346 10 1 4.3818 23.3976 25.2011 0 0 -1 
347 10 1 5.37454 23.9422 24.3696 0 0 -1 
348 10 1 5.14965 24.0629 22.9908 0 0 -1 
349 10 1 3.93051 23.6403 22.4376 0 0 -1 
350 10 1 2.93339 23.0969 23.2638 0 0 -1 
351 10 1 3.15621 22.9714 24.6469 0 0 -1 
352 10 1 27.2292 22.4258 25.4809 -1 0 -1 
353 10 1 1.6681 15.3717 1.38509 0 0 0 
354 10 2 3.60136 16.2472 0.974489 0 0 0 
355 10 2 5.54654 23.6144 27.0081 0 0 -1 
356 10 2 6.31818 24.2744 24.7891 0 0 -1 
357 10 2 5.91906 24.4895 22.3564 0 0 -1 
358 10 2 3.75698 23.7367 21.3704 0 0 -1 
359 10 2 27.0551 22.7767 22.8283 -1 0 -1 
360 10 2 26.2871 22.0935 25.0561 -1 0 -1 
361 11 1 6.74066 22.0531 14.3556 0 0 0 
362 11 1 5.74949 22.0605 15.3513 0 0 0 
363 11 1 5.97363 21.4131 16.5783 0 0 0 
364 11 1 4.98355 21.425 17.5757 0 0 0 
365 11 1 5.20649 20.7836 18.807 0 0 0 
366 11 1 4.20895 20.792 19.7951 0 0 0 
367 11 1 2.9914 21.4491 19.561 0 0 0 
368 11 1 2.76734 22.0952 18.3367 0 0 0 
369 11 1 3.75817 22.0834 17.3404 0 0 0 
370 11 1 3.53389 22.729 16.1133 0 0 0 
371 11 1 6.51755 22.7033 13.1304 0 0 0 
372 11 2 7.68227 21.5431 14.5331 0 0 0 
373 11 2 6.91542 20.9034 16.7566 0 0 0 
374 11 2 6.14809 20.278 18.9988 0 0 0 
375 11 2 4.37729 20.2879 20.7411 0 0 0 
376 11 2 27.2866 21.4601 20.3271 -1 0 0 
377 11 2 26.8873 22.6004 18.1633 -1 0 0 
378 11 2 2.59222 23.2382 15.9346 0 0 0 
379 11 1 4.3024 23.371 13.8932 0 0 0 
380 11 1 5.29359 23.3635 12.8974 0 0 0 
381 11 1 5.06943 24.011 11.6705 0 0 0 
382 11 1 6.05952 23.999 10.6731 0 0 0 
383 11 1 5.83657 24.6404 9.44181 0 0 0 
384 11 1 6.83411 24.632 8.45369 0 0 0 
385 11 1 8.05167 23.975 8.68776 0 0 0 
386 11 1 8.27571 23.3289 9.91211 0 0 0 
387 11 1 7.2849 23.3406 10.9084 0 0 0 
388 11 1 7.50917 22.6951 12.1355 0 0 0 
389 11 1 4.5255 22.7208 15.1183 0 0 0 
390 11 2 3.3608 23.8809 13.7157 0 0 0 
391 11 2 4.12765 24.5206 11.4922 0 0 0 
392 11 2 4.89498 25.146 9.25002 0 0 0 
393 11 2 6.66577 25.1361 7.50771 0 0 0 
394 11 2 8.82044 23.9639 7.9217 0 0 0 
395 11 2 9.21978 22.8236 10.0855 0 0 0 
396 11 2 8.45085 22.1858 12.3141 0 0 0 
397 12 1 25.8734 18.4109 13.5742 -1 0 0 
398 12 1 26.096 18.2996 14.9568 -1 0 0 
399 12 1 25.1035 17.7586 15.7903 -1 0 0 
400 12 1 25.3266 17.643 17.1721 -1 0 0 
401 12 1 24.3339 17.0984 18.0036 -1 0 0 
402 12 1 24.5587 16.9777 19.3824 -1 0 0 
403 12 1 25.7779 17.4003 19.9356 -1 0 0 
404 12 1 26.775 17.9437 19.1094 -1 0 0 
405 12 1 26.5522 18.0692 17.7263 -1 0 0 
406 12 1 2.47923 18.6148 16.8922 0 0 0 
407 12 1 26.8649 18.9526 12.7393 -1 0 0 
408 12 2 24.9317 18.0772 13.1499 -1 0 0 
409 12 2 24.1619 17.4262 15.3651 -1 0 0 
410 12 2 23.3902 16.7662 17.5841 -1 0 0 
411 12 2 23.7893 16.5511 20.0168 -1 0 0 
412 12 2 25.9514 17.3038 21.0028 -1 0 0 
413 12 2 2.65329 18.2639 19.5449 0 0 0 
414 12 2 3.42131 18.9471 17.3171 0 0 0 
415 12 1 3.24735 19.2715 14.6746 0 0 0 
416 12 1 3.02468 19.3829 13.292 0 0 0 
417 12 1 4.01722 19.9239 12.4585 0 0 0 
418 12 1 3.79413 20.0394 11.0767 0 0 0 
419 12 1 4.78686 20.5841 10.2452 0 0 0 
420 12 1 4.56198 20.7047 8.86642 0 0 0 
421 12 1 3.34283 20.2822 8.31323 0 0 0 
422 12 1 2.34571 19.7388 9.13942 0 0 0 
423 12 1 2.56854 19.6133 10.5225 0 0 0 
424 12 1 26.6415 19.0677 11.3565 -1 0 0 
425 12 1 2.25578 18.7298 15.5095 0 0 0 
426 12 2 4.18903 19.6053 15.0989 0 0 0 
427 12 2 4.95886 20.2563 12.8837 0 0 0 
428 12 2 5.7305 20.9163 10.6647 0 0 0 
429 12 2 5.33139 21.1313 8.23201 0 0 0 
430 12 2 3.1693 20.3786 7.24599 0 0 0 
431 12 2 26.4674 19.4186 8.70391 -1 0 0 
432 12 2 25.6994 18.7354 10.9317 -1 0 0 
433 13 1 6.87333 26.4365 0.23125 0 0 0 
434 13 1 5.88215 26.444 1.22694 0 0 0 
435 13 1 6.1063 25.7965 2.4539 0 0 0 
436 13 1 5.11621 25.8084 3.45129 0 0 0 
437 13 1 5.33916 25.1671 4.68258 0 0 0 
438 13 1 4.34162 25.1755 5.67072 0 0 0 
439 13 1 3.12406 25.8325 5.43663 0 0 0 
440 13 1 2.90001 26.4786 4.21228 0 0 0 
441 13 1 3.89084 26.4668 3.21603 0 0 0 
442 13 1 3.66655 27.1124 1.98886 0 0 0 
443 13 1 7.82557 33.803 27.2548 0 0 -1 
444 13 2 7.81493 25.9265 0.40869 0 0 0 
445 13 2 7.04809 25.2869 2.63219 0 0 0 
446 13 2 6.28076 24.6615 4.87438 0 0 0 
447 13 2 4.50996 24.6713 6.61669 0 0 0 
448 13 2 27.4193 25.8436 6.2027 -1 0 0 
449 13 2 27.02 26.9839 4.03886 -1 0 0 
450 13 2 2.72489 27.6216 1.81025 0 0 0 
451 13 1 5.61042 34.4706 28.0176 0 0 -1 
452 13 1 6.60161 34.4632 27.0218 0 0 -1 
453 13 1 6.37745 35.1106 25.7949 0 0 -1 
454 13 1 7.36754 35.0987 24.7975 0 0 -1 
455 13 1 7.14459 35.7401 23.5662 0 0 -1 
456 13 1 8.14213 35.7317 22.5781 0 0 -1 
457 13 1 9.35969 35.0746 22.8122 0 0 -1 
458 13 1 9.58373 34.4286 24.0365 0 0 -1 
459 13 1 8.59292 34.4403 25.0328 0 0 -1 
460 13 1 8.81719 33.7947 26.2599 0 0 -1 
461 13 1 4.65817 27.1042 0.993922 0 0 0 
462 13 2 4.66882 34.9806 27.8401 0 0 -1 
463 13 2 5.43567 35.6203 25.6166 0 0 -1 
464 13 2 6.203 36.2457 23.3744 0 0 -1 
465 13 2 5.09242 5.26959 21.6321 0 1 -1 
466 13 2 10.1285 35.0636 22.0461 0 0 -1 
467 13 2 10.5278 33.9233 24.2099 0 0 -1 
468 13 2 9.75887 33.2855 26.4385 0 0 -1 
469 14 1 27.1814 29.5106 27.6986 -1 0 -1 
470 14 1 26.2287 22.683 0.832398 -1 0 0 
471 14 1 25.2362 22.1421 1.66591 -1 0 0 
472 14 1 25.4593 22.0265 3.04767 -1 0 0 
473 14 1 24.4665 21.4818 3.87918 -1 0 0 
474 14 1 24.6914 21.3612 5.25798 -1 0 0 
475 14 1 25.9106 21.7837 5.81117 -1 0 0 
476 14 1 26.9077 22.3271 4.98498 -1 0 0 
477 14 1 26.6849 22.4526 3.60186 -1 0 0 
478 14 1 2.61189 22.9983 2.76785 0 0 0 
479 14 1 28.173 30.0523 26.8637 -1 0 -1 
480 14 2 26.2397 29.1768 27.2743 -1 0 -1 
481 14 2 24.2945 21.8096 1.24073 -1 0 0 
482 14 2 23.5229 21.1496 3.45972 -1 0 0 
483 14 2 23.922 20.9346 5.89239 -1 0 0 
484 14 2 26.0841 21.6873 6.8784 -1 0 0 
485 14 2 2.78596 22.6473 5.42048 0 0 0 
486 14 2 3.55397 23.3305 3.19271 0 0 0 
487 14 1 3.38002 23.655 0.550229 0 0 0 
488 14 1 4.3327 30.4826 27.4164 0 0 -1 
489 14 1 5.32524 31.0235 26.5829 0 0 -1 
490 14 1 5.10215 31.1391 25.2011 0 0 -1 
491 14 1 6.09488 31.6837 24.3696 0 0 -1 
492 14 1 5.87 31.8044 22.9908 0 0 -1 
493 14 1 4.65085 31.3819 22.4376 0 0 -1 
494 14 1 3.65373 30.8385 23.2638 0 0 -1 
495 14 1 3.87656 30.713 24.6469 0 0 -1 
496 14 1 27.9495 30.1673 25.4809 -1 0 -1 
497 14 1 2.38845 23.1133 1.38509 0 0 0 
498 14 2 4.3217 23.9887 0.974489 0 0 0 
499 14 2 6.26688 31.356 27.0081 0 0 -1 
500 14 2 7.03852 32.016 24.7891 0 0 -1 
501 14 2 6.63941 32.231 22.3564 0 0 -1 
502 14 2 4.47732 31.4783 21.3704 0 0 -1 
503 14 2 27.7755 30.5183 22.8283 -1 0 -1 
504 14 2 27.0074 29.8351 25.0561 -1 0 -1 
505 15 1 7.461 29.7946 14.3556 0 0 0 
506 15 1 6.46983 29.8021 15.3513 0 0 0 
507 15 1 6.69398 29.1546 16.5783 0 0 0 
508 15 1 5.70389 29.1665 17.5757 0 0 0 
509 15 1 5.92683 28.5252 18.807 0 0 0 
510 15 1 4.9293 28.5336 19.7951 0 0 0 
511 15 1 3.71174 29.1906 19.561 0 0 0 
512 15 1 3.48769 29.8367 18.3367 0 0 0 
513 15 1 4.47851 29.825 17.3404 0 0 0 
514 15 1 4.25423 30.4705 16.1133 0 0 0 
515 15 1 7.23789 30.4448 13.1304 0 0 0 
516 15 2 8.40261 29.2846 14.5331 0 0 0 
517 15 2 7.63577 28.645 16.7566 0 0 0 
518 15 2 6.86844 28.0196 18.9988 0 0 0 
519 15 2 5.09764 28.0294 20.7411 0 0 0 
520 15 2 28.007 29.2017 20.3271 -1 0 0 
521 15 2 27.6076 30.342 18.1633 -1 0 0 
522 15 2 3.31257 30.9798 15.9346 0 0 0 
523 15 1 5.02274 31.1125 13.8932 0 0 0 
524 15 1 6.01393 31.1051 12.8974 0 0 0 
525 15 1 5.78977 31.7525 11.6705 0 0 0 
526 15 1 6.77986 31.7406 10.6731 0 0 0 
527 15 1 6.55691 32.382 9.44181 0 0 0 
528 15 1 7.55445 32.3736 8.45369 0 0 0 
529 15 1 8.77202 31.7165 8.68776 0 0 0 
530 15 1 8.99606 31.0704 9.91211 0 0 0 
531 15 1 8.00524 31.0822 10.9084 0 0 0 
532 15 1 8.22952 30.4366 12.1355 0 0 0 
533 15 1 5.24584 30.4623 15.1183 0 0 0 
534 15 2 4.08115 31.6225 13.7157 0 0 0 
535 15 2 4.84799 32.2622 11.4922 0 0 0 
536 15 2 5.61532 32.8875 9.25002 0 0 0 
537 15 2 4.50474 1.91146 7.50771 0 1 0 
538 15 2 9.54078 31.7055 7.9217 0 0 0 
539 15 2 9.94012 30.5652 10.0855 0 0 0 
540 15 2 9.17119 29.9274 12.3141 0 0 0 
541 16 1 26.5937 26.1525 13.5742 -1 0 0 
542 16 1 26.8164 26.0411 14.9568 -1 0 0 
543 16 1 25.8238 25.5002 15.7903 -1 0 0 
544 16 1 26.0469 25.3846 17.1721 -1 0 0 
545 16 1 25.0542 24.84 18.0036 -1 0 0 
546 16 1 25.2791 24.7193 19.3824 -1 0 0 
547 16 1 26.4982 25.1418 19.9356 -1 0 0 
548 16 1 27.4954 25.6852 19.1094 -1 0 0 
549 16 1 27.2725 25.8107 17.7263 -1 0 0 
550 16 1 3.19957 26.3564 16.8922 0 0 0 
551 16 1 27.5853 26.6942 12.7393 -1 0 0 
552 16 2 25.652 25.8187 13.1499 -1 0 0 
553 16 2 24.8822 25.1677 15.3651 -1 0 0 
554 16 2 24.1106 24.5077 17.5841 -1 0 0 
555 16 2 24.5097 24.2927 20.0168 -1 0 0 
556 16 2 26.6718 25.0454 21.0028 -1 0 0 
557 16 2 3.37363 26.0054 19.5449 0 0 0 
558 16 2 4.14165 26.6886 17.3171 0 0 0 
559 16 1 3.9677 27.0131 14.6746 0 0 0 
560 16 1 3.74502 27.1245 13.292 0 0 0 
561 16 1 4.73757 27.6654 12.4585 0 0 0 
562 16 1 4.51447 27.781 11.0767 0 0 0 
563 16 1 5.5072 28.3256 10.2452 0 0 0 
564 16 1 5.28232 28.4463 8.86642 0 0 0 
565 16 1 4.06318 28.0237 8.31323 0 0 0 
566 16 1 3.06606 27.4804 9.13942 0 0 0 
567 16 1 3.28888 27.3549 10.5225 0 0 0 
568 16 1 27.3618 26.8092 11.3565 -1 0 0 
569 16 1 2.97612 26.4714 15.5095 0 0 0 
570 16 2 4.90938 27.3469 15.0989 0 0 0 
571 16 2 5.67921 27.9979 12.8837 0 0 0 
572 16 2 6.45085 28.6578 10.6647 0 0 0 
573 16 2 6.05173 28.8729 8.23201 0 0 0 
574 16 2 3.88964 28.1202 7.24599 0 0 0 
575 16 2 27.1878 27.1602 8.70391 -1 0 0 
576 16 2 26.4198 26.477 10.9317 -1 0 0 
577 17 1 10.9783 3.21182 0.23125 0 0 0 
578 17 1 9.98712 3.21928 1.22694 0 0 0 
579 17 1 10.2113 2.57183 2.4539 0 0 0 
580 17 1 9.22118 2.58375 3.45129 0 0 0 
581 17 1 9.44413 1.94239 4.68258 0 0 0 
582 17 1 8.44659 1.95079 5.67072 0 0 0 
583 17 1 7.22903 2.60783 5.43663 0 0 0 
584 17 1 7.00498 3.25391 4.21228 0 0 0 
585 17 1 7.99581 3.24217 3.21603 0 0 0 
586 17 1 7.77152 3.88772 1.98886 0 0 0 
587 17 1 11.9305 10.5783 27.2548 0 0 -1 
588 17 2 11.9199 2.70184 0.40869 0 0 0 
589 17 2 11.1531 2.06219 2.63219 0 0 0 
590 17 2 10.3857 1.43681 4.87438 0 0 0 
591 17 2 11.4963 32.4129 6.61669 0 -1 0 
592 17 2 6.46027 2.61889 6.2027 0 0 0 
593 17 2 6.06093 3.75918 4.03886 0 0 0 
594 17 2 6.82986 4.39697 1.81025 0 0 0 
595 17 1 9.71539 11.246 28.0176 0 0 -1 
596 17 1 10.7066 11.2385 27.0218 0 0 -1 
597 17 1 10.4824 11.886 25.7949 0 0 -1 
598 17 1 11.4725 11.874 24.7975 0 0 -1 
599 17 1 11.2496 12.5154 23.5662 0 0 -1 
600 17 1 12.2471 12.507 22.5781 0 0 -1 
601 17 1 13.4647 11.85 22.8122 0 0 -1 
602 17 1 13.6887 11.2039 24.0365 0 0 -1 
603 17 1 12.6979 11.2156 25.0328 0 0 -1 
604 17 1 12.9222 10.5701 26.2599 0 0 -1 
605 17 1 8.76314 3.87953 0.993922 0 0 0 
606 17 2 8.77379 11.7559 27.8401 0 0 -1 
607 17 2 9.54064 12.3956 25.6166 0 0 -1 
608 17 2 10.308 13.021 23.3744 0 0 -1 
609 17 2 12.0788 13.0111 21.6321 0 0 -1 
610 17 2 14.2334 11.8389 22.0461 0 0 -1 
611 17 2 14.6328 10.6986 24.2099 0 0 -1 
612 17 2 13.8638 10.0608 26.4385 0 0 -1 
613 18 1 9.10373 37.2522 27.6986 0 -1 -1 
614 18 1 8.15105 30.4246 0.832398 0 -1 0 
615 18 1 7.15851 29.8836 1.66591 0 -1 0 
616 18 1 7.38161 29.768 3.04767 0 -1 0 
617 18 1 6.38887 29.2234 3.87918 0 -1 0 
618 18 1 6.61376 29.1027 5.25798 0 -1 0 
619 18 1 7.8329 29.5253 5.81117 0 -1 0 
620 18 1 8.83002 30.0687 4.98498 0 -1 0 
621 18 1 8.6072 30.1942 3.60186 0 -1 0 
622 18 1 9.59824 30.7398 2.76785 0 -1 0 
623 18 1 7.21393 6.82763 26.8637 0 0 -1 
624 18 2 8.16205 36.9184 27.2743 0 -1 -1 
625 18 2 6.21687 29.5512 1.24073 0 -1 0 
626 18 2 5.44523 28.8912 3.45972 0 -1 0 
627 18 2 5.84435 28.6761 5.89239 0 -1 0 
628 18 2 8.00643 29.4288 6.8784 0 -1 0 
629 18 2 9.7723 30.3889 5.42048 0 -1 0 
630 18 2 10.5403 31.0721 3.19271 0 -1 0 
631 18 1 7.48499 0.430305 0.550229 0 0 0 
632 18 1 8.43767 7.2579 27.4164 0 0 -1 
633 18 1 9.43021 7.79886 26.5829 0 0 -1 
634 18 1 9.20712 7.91445 25.2011 0 0 -1 
635 18 1 10.1999 8.45907 24.3696 0 0 -1 
636 18 1 9.97497 8.57974 22.9908 0 0 -1 
637 18 1 8.75582 8.15719 22.4376 0 0 -1 
638 18 1 7.7587 7.6138 23.2638 0 0 -1 
639 18 1 7.98153 7.4883 24.6469 0 0 -1 
640 18 1 6.99049 6.94266 25.4809 0 0 -1 
641 18 1 9.37479 30.8548 1.38509 0 -1 0 
642 18 2 8.42667 0.764069 0.974489 0 0 0 
643 18 2 10.3719 8.13132 27.0081 0 0 -1 
644 18 2 11.1435 8.79129 24.7891 0 0 -1 
645 18 2 10.7444 9.00635 22.3564 0 0 -1 
646 18 2 8.58229 8.25363 21.3704 0 0 -1 
647 18 2 6.81642 7.29361 22.8283 0 0 -1 
648 18 2 6.04841 6.61041 25.0561 0 0 -1 
649 19 1 11.566 6.56994 14.3556 0 0 0 
650 19 1 10.5748 6.5774 15.3513 0 0 0 
651 19 1 10.7989 5.92995 16.5783 0 0 0 
652 19 1 9.80886 5.94187 17.5757 0 0 0 
653 19 1 10.0318 5.30051 18.807 0 0 0 
654 19 1 9.03427 5.30891 19.7951 0 0 0 
655 19 1 7.81671 5.96595 19.561 0 0 0 
656 19 1 7.59266 6.61204 18.3367 0 0 0 
657 19 1 8.58348 6.60029 17.3404 0 0 0 
658 19 1 8.3592 7.24584 16.1133 0 0 0 
659 19 1 11.3429 7.22016 13.1304 0 0 0 
660 19 2 12.5076 6.05997 14.5331 0 0 0 
661 19 2 11.7407 5.42031 16.7566 0 0 0 
662 19 2 10.9734 4.79493 18.9988 0 0 0 
663 19 2 12.084 35.771 20.7411 0 -1 0 
664 19 2 7.04794 5.97702 20.3271 0 0 0 
665 19 2 6.64861 7.11731 18.1633 0 0 0 
666 19 2 7.41754 7.75509 15.9346 0 0 0 
667 19 1 9.12771 7.88784 13.8932 0 0 0 
668 19 1 10.1189 7.8804 12.8974 0 0 0 
669 19 1 9.89474 8.52784 11.6705 0 0 0 
670 19 1 10.8848 8.51592 10.6731 0 0 0 
671 19 1 10.6619 9.1573 9.44181 0 0 0 
672 19 1 11.6594 9.14888 8.45369 0 0 0 
673 19 1 12.877 8.49185 8.68776 0 0 0 
674 19 1 13.101 7.84576 9.91211 0 0 0 
675 19 1 12.1102 7.85751 10.9084 0 0 0 
676 19 1 12.3345 7.21195 12.1355 0 0 0 
677 19 1 9.35081 7.23765 15.1183 0 0 0 
678 19 2 8.18612 8.39782 13.7157 0 0 0 
679 19 2 8.95296 9.03748 11.4922 0 0 0 
680 19 2 9.72029 9.66286 9.25002 0 0 0 
681 19 2 11.4911 9.65302 7.50771 0 0 0 
682 19 2 13.6458 8.48078 7.9217 0 0 0 
683 19 2 14.0451 7.34049 10.0855 0 0 0 
684 19 2 13.2762 6.7027 12.3141 0 0 0 
685 20 1 8.51605 33.894 13.5742 0 -1 0 
686 20 1 8.73873 33.7827 14.9568 0 -1 0 
687 20 1 7.74619 33.2417 15.7903 0 -1 0 
688 20 1 7.96928 33.1261 17.1721 0 -1 0 
689 20 1 6.97655 32.5815 18.0036 0 -1 0 
690 20 1 7.20144 32.4608 19.3824 0 -1 0 
691 20 1 8.42058 32.8834 19.9356 0 -1 0 
692 20 1 9.4177 33.4268 19.1094 0 -1 0 
693 20 1 9.19487 33.5523 17.7263 0 -1 0 
694 20 1 10.1859 34.0979 16.8922 0 -1 0 
695 20 1 6.62626 3.46951 12.7393 0 0 0 
696 20 2 7.57438 33.5603 13.1499 0 -1 0 
697 20 2 6.80455 32.9093 15.3651 0 -1 0 
698 20 2 6.03291 32.2493 17.5841 0 -1 0 
699 20 2 6.43202 32.0342 20.0168 0 -1 0 
700 20 2 8.59411 32.787 21.0028 0 -1 0 
701 20 2 10.36 33.747 19.5449 0 -1 0 
702 20 2 11.128 34.4302 17.3171 0 -1 0 
703 20 1 8.07267 3.78843 14.6746 0 0 0 
704 20 1 7.84999 3.89978 13.292 0 0 0 
705 20 1 8.84254 4.44074 12.4585 0 0 0 
706 20 1 8.61944 4.55633 11.0767 0 0 0 
707 20 1 9.61217 5.10095 10.2452 0 0 0 
708 20 1 9.38729 5.22162 8.86642 0 0 0 
709 20 1 8.16815 4.79907 8.31323 0 0 0 
710 20 1 7.17103 4.25568 9.13942 0 0 0 
711 20 1 7.39385 4.13018 10.5225 0 0 0 
712 20 1 6.40281 3.58454 11.3565 0 0 0 
713 20 1 9.96246 34.213 15.5095 0 -1 0 
714 20 2 9.01435 4.12219 15.0989 0 0 0 
715 20 2 9.78418 4.7732 12.8837 0 0 0 
716 20 2 10.5558 5.43317 10.6647 0 0 0 
717 20 2 10.1567 5.64823 8.23201 0 0 0 
718 20 2 7.99461 4.8955 7.24599 0 0 0 
719 20 2 6.22875 3.93549 8.70391 0 0 0 
720 20 2 5.46073 3.25228 10.9317 0 0 0 
721 21 1 11.6986 10.9534 0.23125 0 0 0 
722 21 1 10.7075 10.9608 1.22694 0 0 0 
723 21 1 10.9316 10.3134 2.4539 0 0 0 
724 21 1 9.94153 10.3253 3.45129 0 0 0 
725 21 1 10.1645 9.68395 4.68258 0 0 0 
726 21 1 9.16693 9.69235 5.67072 0 0 0 
727 21 1 7.94938 10.3494 5.43663 0 0 0 
728 21 1 7.72532 10.9955 4.21228 0 0 0 
729 21 1 8.71615 10.9837 3.21603 0 0 0 
730 21 1 8.49187 11.6293 1.98886 0 0 0 
731 21 1 12.6509 18.3198 27.2548 0 0 -1 
732 21 2 12.6402 10.4434 0.40869 0 0 0 
733 21 2 11.8734 9.80375 2.63219 0 0 0 
734 21 2 11.1061 9.17837 4.87438 0 0 0 
735 21 2 9.33527 9.18821 6.61669 0 0 0 
736 21 2 7.18061 10.3605 6.2027 0 0 0 
737 21 2 6.78128 11.5007 4.03886 0 0 0 
738 21 2 7.5502 12.1385 1.81025 0 0 0 
739 21 1 10.4357 18.9875 28.0176 0 0 -1 
740 21 1 11.4269 18.9801 27.0218 0 0 -1 
741 21 1 11.2028 19.6275 25.7949 0 0 -1 
742 21 1 12.1929 19.6156 24.7975 0 0 -1 
743 21 1 11.9699 20.257 23.5662 0 0 -1 
744 21 1 12.9674 20.2486 22.5781 0 0 -1 
745 21 1 14.185 19.5915 22.8122 0 0 -1 
746 21 1 14.409 18.9454 24.0365 0 0 -1 